REMARK SMILES [H]/N=C(\N)c1cc2c(cc1F)N/C(=C1/C=CC=C(OCC(C)C)C1=O)N2
REMARK SMILES IDX 19 1 18 2 10 3 9 4 5 5 8 6 6 7 12 8 7 9 13 10 26 11 14 12
REMARK SMILES IDX 24 13 15 14 25 15 16 16 17 17 11 18 3 21 4 22 2 23 1 26
REMARK SMILES IDX 20 27 21 28 22 29 23 30
REMARK H PARENT 12 19 26 20 4 24 4 25
ROOT
ATOM      1  O   UNL     1      10.531  -1.155   0.000  1.00  0.00    -0.489 OA
ENDROOT
BRANCH   1   2
ATOM      2  C   UNL     1      10.031  -0.289   0.000  1.00  0.00     0.167 C 
ATOM      3  C   UNL     1       4.269   0.077   0.000  1.00  0.00     0.136 A 
ATOM      4  C   UNL     1       5.135  -0.423   0.000  1.00  0.00     0.068 A 
ATOM      5  C   UNL     1       4.269   1.077   0.000  1.00  0.00     0.054 A 
ATOM      6  C   UNL     1       6.001   0.077   0.000  1.00  0.00     0.066 A 
ATOM      7  C   UNL     1       5.135   1.577   0.000  1.00  0.00     0.043 A 
ATOM      8  N   UNL     1       6.947  -0.228   0.000  1.00  0.00    -0.339 N 
ATOM      9  C   UNL     1       6.001   1.077   0.000  1.00  0.00     0.064 A 
ATOM     10  C   UNL     1       7.531   0.577   0.000  1.00  0.00     0.119 C 
ATOM     11  N   UNL     1       6.947   1.382   0.000  1.00  0.00    -0.339 N 
ATOM     12  C   UNL     1       8.531   0.577   0.000  1.00  0.00     0.067 C 
ATOM     13  C   UNL     1       9.031  -0.289   0.000  1.00  0.00     0.231 C 
ATOM     14  C   UNL     1       9.031   1.443   0.000  1.00  0.00     0.016 C 
ATOM     15  O   UNL     1       8.531  -1.155   0.000  1.00  0.00    -0.285 OA
ATOM     16  C   UNL     1      10.031   1.443   0.000  1.00  0.00     0.005 C 
ATOM     17  C   UNL     1      10.531   0.577   0.000  1.00  0.00     0.051 C 
ATOM     18  F   UNL     1       3.403  -0.423   0.000  1.00  0.00    -0.206 F 
ATOM     19  H   UNL     1       7.140  -0.817   0.000  1.00  0.00     0.168 HD
ATOM     20  H   UNL     1       7.140   1.971   0.000  1.00  0.00     0.168 HD
BRANCH   5  21
ATOM     21  C   UNL     1       3.403   1.577   0.000  1.00  0.00     0.125 C 
ATOM     22  N   UNL     1       3.403   2.577   0.000  1.00  0.00    -0.384 N 
ATOM     23  N   UNL     1       2.537   1.077   0.000  1.00  0.00    -0.284 NA
ATOM     24  H   UNL     1       2.866   2.887   0.000  1.00  0.00     0.158 HD
ATOM     25  H   UNL     1       3.940   2.887   0.000  1.00  0.00     0.158 HD
ATOM     26  H   UNL     1       2.000   1.387   0.000  1.00  0.00     0.189 HD
ENDBRANCH   5  21
ENDBRANCH   1   2
BRANCH   1  27
ATOM     27  C   UNL     1      11.531  -1.155   0.000  1.00  0.00     0.232 C 
BRANCH  27  28
ATOM     28  C   UNL     1      12.031  -2.021   0.000  1.00  0.00     0.020 C 
ATOM     29  C   UNL     1      13.031  -2.021   0.000  1.00  0.00     0.011 C 
ATOM     30  C   UNL     1      11.531  -2.887   0.000  1.00  0.00     0.011 C 
ENDBRANCH  27  28
ENDBRANCH   1  27
TORSDOF 4
