MODEL 1
REMARK VINA RESULT:    -7.852      0.000      0.000
REMARK INTER + INTRA:          -6.154
REMARK INTER:                  -9.688
REMARK INTRA:                   3.534
REMARK UNBOUND:                 3.534
REMARK SMILES [H]/N=C(\N)c1cc2c(cc1F)N/C(=C1/C=CC=C(OCC(C)C)C1=O)N2
REMARK SMILES IDX 19 1 18 2 10 3 9 4 5 5 8 6 6 7 12 8 7 9 13 10 26 11 14 12
REMARK SMILES IDX 24 13 15 14 25 15 16 16 17 17 11 18 3 21 4 22 2 23 1 26
REMARK SMILES IDX 20 27 21 28 22 29 23 30
REMARK H PARENT 12 19 26 20 4 24 4 25
ROOT
ATOM      1  O   UNL     1      40.155  62.770  38.987  1.00  0.00    -0.489 OA
ENDROOT
BRANCH   1   2
ATOM      2  C   UNL     1      39.480  63.450  39.273  1.00  0.00     0.167 C 
ATOM      3  C   UNL     1      34.648  62.144  42.151  1.00  0.00     0.136 A 
ATOM      4  C   UNL     1      35.511  61.917  41.699  1.00  0.00     0.068 A 
ATOM      5  C   UNL     1      34.341  63.094  42.194  1.00  0.00     0.054 A 
ATOM      6  C   UNL     1      36.067  62.641  41.290  1.00  0.00     0.066 A 
ATOM      7  C   UNL     1      34.896  63.818  41.785  1.00  0.00     0.043 A 
ATOM      8  N   UNL     1      36.935  62.622  40.808  1.00  0.00    -0.339 N 
ATOM      9  C   UNL     1      35.759  63.591  41.333  1.00  0.00     0.064 A 
ATOM     10  C   UNL     1      37.166  63.555  40.552  1.00  0.00     0.119 C 
ATOM     11  N   UNL     1      36.440  64.153  40.876  1.00  0.00    -0.339 N 
ATOM     12  C   UNL     1      37.985  63.842  40.055  1.00  0.00     0.067 C 
ATOM     13  C   UNL     1      38.661  63.163  39.770  1.00  0.00     0.231 C 
ATOM     14  C   UNL     1      38.128  64.809  39.843  1.00  0.00     0.016 C 
ATOM     15  O   UNL     1      38.517  62.196  39.981  1.00  0.00    -0.285 OA
ATOM     16  C   UNL     1      38.947  65.096  39.347  1.00  0.00     0.005 C 
ATOM     17  C   UNL     1      39.623  64.416  39.061  1.00  0.00     0.051 C 
ATOM     18  F   UNL     1      34.092  61.420  42.560  1.00  0.00    -0.206 F 
ATOM     19  H   UNL     1      37.274  62.118  40.687  1.00  0.00     0.168 HD
ATOM     20  H   UNL     1      36.417  64.768  40.805  1.00  0.00     0.168 HD
BRANCH   5  21
ATOM     21  C   UNL     1      33.478  63.321  42.645  1.00  0.00     0.125 C 
ATOM     22  N   UNL     1      32.782  63.848  42.157  1.00  0.00    -0.384 N 
ATOM     23  N   UNL     1      33.311  63.021  43.584  1.00  0.00    -0.284 NA
ATOM     24  H   UNL     1      32.247  63.988  42.438  1.00  0.00     0.158 HD
ATOM     25  H   UNL     1      32.885  64.034  41.575  1.00  0.00     0.158 HD
ATOM     26  H   UNL     1      32.776  63.161  43.864  1.00  0.00     0.189 HD
ENDBRANCH   5  21
ENDBRANCH   1   2
BRANCH   1  27
ATOM     27  C   UNL     1      40.881  63.024  38.347  1.00  0.00     0.232 C 
BRANCH  27  28
ATOM     28  C   UNL     1      41.637  62.393  38.173  1.00  0.00     0.020 C 
ATOM     29  C   UNL     1      41.449  61.454  37.886  1.00  0.00     0.011 C 
ATOM     30  C   UNL     1      42.581  62.702  38.287  1.00  0.00     0.011 C 
ENDBRANCH  27  28
ENDBRANCH   1  27
TORSDOF 4
ENDMDL
MODEL 2
REMARK VINA RESULT:    -7.505     20.831     21.616
REMARK INTER + INTRA:          -5.725
REMARK INTER:                  -8.920
REMARK INTRA:                   3.195
REMARK UNBOUND:                 3.534
REMARK SMILES [H]/N=C(\N)c1cc2c(cc1F)N/C(=C1/C=CC=C(OCC(C)C)C1=O)N2
REMARK SMILES IDX 19 1 18 2 10 3 9 4 5 5 8 6 6 7 12 8 7 9 13 10 26 11 14 12
REMARK SMILES IDX 24 13 15 14 25 15 16 16 17 17 11 18 3 21 4 22 2 23 1 26
REMARK SMILES IDX 20 27 21 28 22 29 23 30
REMARK H PARENT 12 19 26 20 4 24 4 25
ROOT
ATOM      1  O   UNL     1      27.564  47.471  52.606  1.00  0.00    -0.489 OA
ENDROOT
BRANCH   1   2
ATOM      2  C   UNL     1      27.116  47.209  51.751  1.00  0.00     0.167 C 
ATOM      3  C   UNL     1      23.167  50.465  49.079  1.00  0.00     0.136 A 
ATOM      4  C   UNL     1      23.817  50.266  49.813  1.00  0.00     0.068 A 
ATOM      5  C   UNL     1      23.041  49.812  48.332  1.00  0.00     0.054 A 
ATOM      6  C   UNL     1      24.340  49.414  49.800  1.00  0.00     0.066 A 
ATOM      7  C   UNL     1      23.565  48.960  48.319  1.00  0.00     0.043 A 
ATOM      8  N   UNL     1      25.020  49.040  50.422  1.00  0.00    -0.339 N 
ATOM      9  C   UNL     1      24.215  48.761  49.053  1.00  0.00     0.064 A 
ATOM     10  C   UNL     1      25.314  48.160  50.064  1.00  0.00     0.119 C 
ATOM     11  N   UNL     1      24.817  47.988  49.219  1.00  0.00    -0.339 N 
ATOM     12  C   UNL     1      25.991  47.553  50.480  1.00  0.00     0.067 C 
ATOM     13  C   UNL     1      26.439  47.815  51.335  1.00  0.00     0.231 C 
ATOM     14  C   UNL     1      26.221  46.684  50.041  1.00  0.00     0.016 C 
ATOM     15  O   UNL     1      26.209  48.684  51.773  1.00  0.00    -0.285 OA
ATOM     16  C   UNL     1      26.898  46.078  50.458  1.00  0.00     0.005 C 
ATOM     17  C   UNL     1      27.346  46.340  51.313  1.00  0.00     0.051 C 
ATOM     18  F   UNL     1      22.644  51.317  49.092  1.00  0.00    -0.206 F 
ATOM     19  H   UNL     1      25.224  49.307  50.942  1.00  0.00     0.168 HD
ATOM     20  H   UNL     1      24.874  47.487  48.860  1.00  0.00     0.168 HD
BRANCH   5  21
ATOM     21  C   UNL     1      22.392  50.011  47.598  1.00  0.00     0.125 C 
ATOM     22  N   UNL     1      21.463  49.644  47.640  1.00  0.00    -0.384 N 
ATOM     23  N   UNL     1      22.672  50.576  46.823  1.00  0.00    -0.284 NA
ATOM     24  H   UNL     1      21.060  49.767  47.185  1.00  0.00     0.158 HD
ATOM     25  H   UNL     1      21.289  49.293  48.121  1.00  0.00     0.158 HD
ATOM     26  H   UNL     1      22.269  50.700  46.368  1.00  0.00     0.189 HD
ENDBRANCH   5  21
ENDBRANCH   1   2
BRANCH   1  27
ATOM     27  C   UNL     1      28.559  47.421  52.685  1.00  0.00     0.232 C 
BRANCH  27  28
ATOM     28  C   UNL     1      29.028  47.914  53.418  1.00  0.00     0.020 C 
ATOM     29  C   UNL     1      29.515  48.764  53.217  1.00  0.00     0.011 C 
ATOM     30  C   UNL     1      29.010  47.557  54.352  1.00  0.00     0.011 C 
ENDBRANCH  27  28
ENDBRANCH   1  27
TORSDOF 4
ENDMDL
MODEL 3
REMARK VINA RESULT:    -7.458     17.190     20.757
REMARK INTER + INTRA:          -5.668
REMARK INTER:                  -8.959
REMARK INTRA:                   3.291
REMARK UNBOUND:                 3.534
REMARK SMILES [H]/N=C(\N)c1cc2c(cc1F)N/C(=C1/C=CC=C(OCC(C)C)C1=O)N2
REMARK SMILES IDX 19 1 18 2 10 3 9 4 5 5 8 6 6 7 12 8 7 9 13 10 26 11 14 12
REMARK SMILES IDX 24 13 15 14 25 15 16 16 17 17 11 18 3 21 4 22 2 23 1 26
REMARK SMILES IDX 20 27 21 28 22 29 23 30
REMARK H PARENT 12 19 26 20 4 24 4 25
ROOT
ATOM      1  O   UNL     1      18.187  70.656  48.879  1.00  0.00    -0.489 OA
ENDROOT
BRANCH   1   2
ATOM      2  C   UNL     1      19.051  71.128  49.049  1.00  0.00     0.167 C 
ATOM      3  C   UNL     1      23.151  71.837  45.046  1.00  0.00     0.136 A 
ATOM      4  C   UNL     1      22.263  71.511  45.371  1.00  0.00     0.068 A 
ATOM      5  C   UNL     1      23.761  72.329  45.666  1.00  0.00     0.054 A 
ATOM      6  C   UNL     1      21.986  71.678  46.317  1.00  0.00     0.066 A 
ATOM      7  C   UNL     1      23.483  72.496  46.612  1.00  0.00     0.043 A 
ATOM      8  N   UNL     1      21.163  71.441  46.822  1.00  0.00    -0.339 N 
ATOM      9  C   UNL     1      22.596  72.171  46.938  1.00  0.00     0.064 A 
ATOM     10  C   UNL     1      21.261  71.784  47.751  1.00  0.00     0.119 C 
ATOM     11  N   UNL     1      22.145  72.234  47.822  1.00  0.00    -0.339 N 
ATOM     12  C   UNL     1      20.589  71.692  48.485  1.00  0.00     0.067 C 
ATOM     13  C   UNL     1      19.724  71.220  48.315  1.00  0.00     0.231 C 
ATOM     14  C   UNL     1      20.781  72.073  49.389  1.00  0.00     0.016 C 
ATOM     15  O   UNL     1      19.532  70.839  47.410  1.00  0.00    -0.285 OA
ATOM     16  C   UNL     1      20.108  71.981  50.124  1.00  0.00     0.005 C 
ATOM     17  C   UNL     1      19.243  71.509  49.953  1.00  0.00     0.051 C 
ATOM     18  F   UNL     1      23.428  71.670  44.100  1.00  0.00    -0.206 F 
ATOM     19  H   UNL     1      20.674  71.133  46.599  1.00  0.00     0.168 HD
ATOM     20  H   UNL     1      22.375  72.507  48.329  1.00  0.00     0.168 HD
BRANCH   5  21
ATOM     21  C   UNL     1      24.649  72.655  45.341  1.00  0.00     0.125 C 
ATOM     22  N   UNL     1      24.737  73.581  44.973  1.00  0.00    -0.384 N 
ATOM     23  N   UNL     1      25.447  72.055  45.383  1.00  0.00    -0.284 NA
ATOM     24  H   UNL     1      25.288  73.783  44.771  1.00  0.00     0.158 HD
ATOM     25  H   UNL     1      24.242  73.953  44.947  1.00  0.00     0.158 HD
ATOM     26  H   UNL     1      25.998  72.257  45.181  1.00  0.00     0.189 HD
ENDBRANCH   5  21
ENDBRANCH   1   2
BRANCH   1  27
ATOM     27  C   UNL     1      17.400  70.822  49.473  1.00  0.00     0.232 C 
BRANCH  27  28
ATOM     28  C   UNL     1      16.485  70.540  49.184  1.00  0.00     0.020 C 
ATOM     29  C   UNL     1      15.683  70.837  49.702  1.00  0.00     0.011 C 
ATOM     30  C   UNL     1      16.373  69.962  48.376  1.00  0.00     0.011 C 
ENDBRANCH  27  28
ENDBRANCH   1  27
TORSDOF 4
ENDMDL
MODEL 4
REMARK VINA RESULT:    -7.337     20.841     21.629
REMARK INTER + INTRA:          -5.519
REMARK INTER:                  -8.716
REMARK INTRA:                   3.196
REMARK UNBOUND:                 3.534
REMARK SMILES [H]/N=C(\N)c1cc2c(cc1F)N/C(=C1/C=CC=C(OCC(C)C)C1=O)N2
REMARK SMILES IDX 19 1 18 2 10 3 9 4 5 5 8 6 6 7 12 8 7 9 13 10 26 11 14 12
REMARK SMILES IDX 24 13 15 14 25 15 16 16 17 17 11 18 3 21 4 22 2 23 1 26
REMARK SMILES IDX 20 27 21 28 22 29 23 30
REMARK H PARENT 12 19 26 20 4 24 4 25
ROOT
ATOM      1  O   UNL     1      27.086  48.373  53.213  1.00  0.00    -0.489 OA
ENDROOT
BRANCH   1   2
ATOM      2  C   UNL     1      26.269  48.908  52.996  1.00  0.00     0.167 C 
ATOM      3  C   UNL     1      23.722  48.894  47.815  1.00  0.00     0.136 A 
ATOM      4  C   UNL     1      24.423  48.611  48.469  1.00  0.00     0.068 A 
ATOM      5  C   UNL     1      23.008  49.536  48.094  1.00  0.00     0.054 A 
ATOM      6  C   UNL     1      24.409  48.969  49.403  1.00  0.00     0.066 A 
ATOM      7  C   UNL     1      22.994  49.894  49.027  1.00  0.00     0.043 A 
ATOM      8  N   UNL     1      25.002  48.814  50.185  1.00  0.00    -0.339 N 
ATOM      9  C   UNL     1      23.695  49.610  49.682  1.00  0.00     0.064 A 
ATOM     10  C   UNL     1      24.659  49.356  50.945  1.00  0.00     0.119 C 
ATOM     11  N   UNL     1      23.852  49.847  50.634  1.00  0.00    -0.339 N 
ATOM     12  C   UNL     1      25.056  49.399  51.862  1.00  0.00     0.067 C 
ATOM     13  C   UNL     1      25.873  48.864  52.079  1.00  0.00     0.231 C 
ATOM     14  C   UNL     1      24.635  49.976  52.562  1.00  0.00     0.016 C 
ATOM     15  O   UNL     1      26.293  48.287  51.379  1.00  0.00    -0.285 OA
ATOM     16  C   UNL     1      25.032  50.019  53.479  1.00  0.00     0.005 C 
ATOM     17  C   UNL     1      25.849  49.485  53.696  1.00  0.00     0.051 C 
ATOM     18  F   UNL     1      23.736  48.536  46.881  1.00  0.00    -0.206 F 
ATOM     19  H   UNL     1      25.500  48.444  50.198  1.00  0.00     0.168 HD
ATOM     20  H   UNL     1      23.508  50.233  50.976  1.00  0.00     0.168 HD
BRANCH   5  21
ATOM     21  C   UNL     1      22.307  49.819  47.439  1.00  0.00     0.125 C 
ATOM     22  N   UNL     1      22.472  50.600  46.836  1.00  0.00    -0.384 N 
ATOM     23  N   UNL     1      21.440  49.323  47.388  1.00  0.00    -0.284 NA
ATOM     24  H   UNL     1      22.038  50.775  46.430  1.00  0.00     0.158 HD
ATOM     25  H   UNL     1      23.010  50.907  46.868  1.00  0.00     0.158 HD
ATOM     26  H   UNL     1      21.006  49.499  46.982  1.00  0.00     0.189 HD
ENDBRANCH   5  21
ENDBRANCH   1   2
BRANCH   1  27
ATOM     27  C   UNL     1      27.854  48.804  53.688  1.00  0.00     0.232 C 
BRANCH  27  28
ATOM     28  C   UNL     1      28.770  48.410  53.617  1.00  0.00     0.020 C 
ATOM     29  C   UNL     1      28.972  47.532  54.052  1.00  0.00     0.011 C 
ATOM     30  C   UNL     1      29.485  48.893  53.111  1.00  0.00     0.011 C 
ENDBRANCH  27  28
ENDBRANCH   1  27
TORSDOF 4
ENDMDL
MODEL 5
REMARK VINA RESULT:    -7.335     20.757     21.532
REMARK INTER + INTRA:          -5.517
REMARK INTER:                  -8.635
REMARK INTRA:                   3.118
REMARK UNBOUND:                 3.534
REMARK SMILES [H]/N=C(\N)c1cc2c(cc1F)N/C(=C1/C=CC=C(OCC(C)C)C1=O)N2
REMARK SMILES IDX 19 1 18 2 10 3 9 4 5 5 8 6 6 7 12 8 7 9 13 10 26 11 14 12
REMARK SMILES IDX 24 13 15 14 25 15 16 16 17 17 11 18 3 21 4 22 2 23 1 26
REMARK SMILES IDX 20 27 21 28 22 29 23 30
REMARK H PARENT 12 19 26 20 4 24 4 25
ROOT
ATOM      1  O   UNL     1      24.503  46.650  44.598  1.00  0.00    -0.489 OA
ENDROOT
BRANCH   1   2
ATOM      2  C   UNL     1      24.807  46.418  45.522  1.00  0.00     0.167 C 
ATOM      3  C   UNL     1      24.110  49.892  50.081  1.00  0.00     0.136 A 
ATOM      4  C   UNL     1      24.021  49.655  49.114  1.00  0.00     0.068 A 
ATOM      5  C   UNL     1      24.546  49.254  50.715  1.00  0.00     0.054 A 
ATOM      6  C   UNL     1      24.368  48.778  48.780  1.00  0.00     0.066 A 
ATOM      7  C   UNL     1      24.893  48.377  50.381  1.00  0.00     0.043 A 
ATOM      8  N   UNL     1      24.375  48.364  47.877  1.00  0.00    -0.339 N 
ATOM      9  C   UNL     1      24.804  48.139  49.414  1.00  0.00     0.064 A 
ATOM     10  C   UNL     1      24.813  47.474  47.948  1.00  0.00     0.119 C 
ATOM     11  N   UNL     1      25.077  47.335  48.897  1.00  0.00    -0.339 N 
ATOM     12  C   UNL     1      24.961  46.830  47.198  1.00  0.00     0.067 C 
ATOM     13  C   UNL     1      24.658  47.062  46.273  1.00  0.00     0.231 C 
ATOM     14  C   UNL     1      25.413  45.955  47.371  1.00  0.00     0.016 C 
ATOM     15  O   UNL     1      24.206  47.937  46.100  1.00  0.00    -0.285 OA
ATOM     16  C   UNL     1      25.562  45.312  46.620  1.00  0.00     0.005 C 
ATOM     17  C   UNL     1      25.259  45.543  45.696  1.00  0.00     0.051 C 
ATOM     18  F   UNL     1      23.764  50.769  50.414  1.00  0.00    -0.206 F 
ATOM     19  H   UNL     1      24.147  48.616  47.358  1.00  0.00     0.168 HD
ATOM     20  H   UNL     1      25.363  46.835  49.126  1.00  0.00     0.168 HD
BRANCH   5  21
ATOM     21  C   UNL     1      24.636  49.491  51.682  1.00  0.00     0.125 C 
ATOM     22  N   UNL     1      23.864  49.356  52.303  1.00  0.00    -0.384 N 
ATOM     23  N   UNL     1      25.496  49.865  52.027  1.00  0.00    -0.284 NA
ATOM     24  H   UNL     1      23.920  49.503  52.903  1.00  0.00     0.158 HD
ATOM     25  H   UNL     1      23.330  49.124  52.089  1.00  0.00     0.158 HD
ATOM     26  H   UNL     1      25.552  50.013  52.627  1.00  0.00     0.189 HD
ENDBRANCH   5  21
ENDBRANCH   1   2
BRANCH   1  27
ATOM     27  C   UNL     1      24.690  46.025  43.840  1.00  0.00     0.232 C 
BRANCH  27  28
ATOM     28  C   UNL     1      24.413  46.271  42.910  1.00  0.00     0.020 C 
ATOM     29  C   UNL     1      25.024  46.813  42.334  1.00  0.00     0.011 C 
ATOM     30  C   UNL     1      23.526  45.974  42.558  1.00  0.00     0.011 C 
ENDBRANCH  27  28
ENDBRANCH   1  27
TORSDOF 4
ENDMDL
MODEL 6
REMARK VINA RESULT:    -7.294      5.403      7.168
REMARK INTER + INTRA:          -5.466
REMARK INTER:                  -8.638
REMARK INTRA:                   3.172
REMARK UNBOUND:                 3.534
REMARK SMILES [H]/N=C(\N)c1cc2c(cc1F)N/C(=C1/C=CC=C(OCC(C)C)C1=O)N2
REMARK SMILES IDX 19 1 18 2 10 3 9 4 5 5 8 6 6 7 12 8 7 9 13 10 26 11 14 12
REMARK SMILES IDX 24 13 15 14 25 15 16 16 17 17 11 18 3 21 4 22 2 23 1 26
REMARK SMILES IDX 20 27 21 28 22 29 23 30
REMARK H PARENT 12 19 26 20 4 24 4 25
ROOT
ATOM      1  O   UNL     1      34.167  64.346  41.822  1.00  0.00    -0.489 OA
ENDROOT
BRANCH   1   2
ATOM      2  C   UNL     1      34.626  65.205  41.593  1.00  0.00     0.167 C 
ATOM      3  C   UNL     1      31.854  69.907  39.713  1.00  0.00     0.136 A 
ATOM      4  C   UNL     1      31.898  68.960  40.031  1.00  0.00     0.068 A 
ATOM      5  C   UNL     1      32.692  70.447  39.634  1.00  0.00     0.054 A 
ATOM      6  C   UNL     1      32.779  68.553  40.270  1.00  0.00     0.066 A 
ATOM      7  C   UNL     1      33.573  70.040  39.872  1.00  0.00     0.043 A 
ATOM      8  N   UNL     1      33.029  67.649  40.598  1.00  0.00    -0.339 N 
ATOM      9  C   UNL     1      33.617  69.093  40.190  1.00  0.00     0.064 A 
ATOM     10  C   UNL     1      34.016  67.627  40.721  1.00  0.00     0.119 C 
ATOM     11  N   UNL     1      34.378  68.518  40.470  1.00  0.00    -0.339 N 
ATOM     12  C   UNL     1      34.550  66.845  41.043  1.00  0.00     0.067 C 
ATOM     13  C   UNL     1      34.091  65.986  41.272  1.00  0.00     0.231 C 
ATOM     14  C   UNL     1      35.543  66.922  41.135  1.00  0.00     0.016 C 
ATOM     15  O   UNL     1      33.099  65.910  41.180  1.00  0.00    -0.285 OA
ATOM     16  C   UNL     1      36.077  66.140  41.456  1.00  0.00     0.005 C 
ATOM     17  C   UNL     1      35.619  65.281  41.685  1.00  0.00     0.051 C 
ATOM     18  F   UNL     1      30.972  70.315  39.475  1.00  0.00    -0.206 F 
ATOM     19  H   UNL     1      32.639  67.180  40.706  1.00  0.00     0.168 HD
ATOM     20  H   UNL     1      34.975  68.685  40.485  1.00  0.00     0.168 HD
BRANCH   5  21
ATOM     21  C   UNL     1      32.648  71.395  39.316  1.00  0.00     0.125 C 
ATOM     22  N   UNL     1      32.663  71.594  38.336  1.00  0.00    -0.384 N 
ATOM     23  N   UNL     1      32.589  72.142  39.978  1.00  0.00    -0.284 NA
ATOM     24  H   UNL     1      32.636  72.182  38.139  1.00  0.00     0.158 HD
ATOM     25  H   UNL     1      32.700  71.131  37.926  1.00  0.00     0.158 HD
ATOM     26  H   UNL     1      32.562  72.729  39.781  1.00  0.00     0.189 HD
ENDBRANCH   5  21
ENDBRANCH   1   2
BRANCH   1  27
ATOM     27  C   UNL     1      34.700  63.569  42.158  1.00  0.00     0.232 C 
BRANCH  27  28
ATOM     28  C   UNL     1      34.261  62.680  42.285  1.00  0.00     0.020 C 
ATOM     29  C   UNL     1      34.723  61.846  41.983  1.00  0.00     0.011 C 
ATOM     30  C   UNL     1      33.359  62.624  42.715  1.00  0.00     0.011 C 
ENDBRANCH  27  28
ENDBRANCH   1  27
TORSDOF 4
ENDMDL
MODEL 7
REMARK VINA RESULT:    -7.289      4.819      6.920
REMARK INTER + INTRA:          -5.459
REMARK INTER:                  -8.933
REMARK INTRA:                   3.473
REMARK UNBOUND:                 3.534
REMARK SMILES [H]/N=C(\N)c1cc2c(cc1F)N/C(=C1/C=CC=C(OCC(C)C)C1=O)N2
REMARK SMILES IDX 19 1 18 2 10 3 9 4 5 5 8 6 6 7 12 8 7 9 13 10 26 11 14 12
REMARK SMILES IDX 24 13 15 14 25 15 16 16 17 17 11 18 3 21 4 22 2 23 1 26
REMARK SMILES IDX 20 27 21 28 22 29 23 30
REMARK H PARENT 12 19 26 20 4 24 4 25
ROOT
ATOM      1  O   UNL     1      33.481  69.693  39.954  1.00  0.00    -0.489 OA
ENDROOT
BRANCH   1   2
ATOM      2  C   UNL     1      32.983  68.853  40.171  1.00  0.00     0.167 C 
ATOM      3  C   UNL     1      35.535  63.994  41.962  1.00  0.00     0.136 A 
ATOM      4  C   UNL     1      35.536  64.947  41.660  1.00  0.00     0.068 A 
ATOM      5  C   UNL     1      34.673  63.493  42.035  1.00  0.00     0.054 A 
ATOM      6  C   UNL     1      34.673  65.399  41.432  1.00  0.00     0.066 A 
ATOM      7  C   UNL     1      33.811  63.945  41.807  1.00  0.00     0.043 A 
ATOM      8  N   UNL     1      34.466  66.320  41.120  1.00  0.00    -0.339 N 
ATOM      9  C   UNL     1      33.811  64.898  41.505  1.00  0.00     0.064 A 
ATOM     10  C   UNL     1      33.481  66.390  41.000  1.00  0.00     0.119 C 
ATOM     11  N   UNL     1      33.077  65.513  41.238  1.00  0.00    -0.339 N 
ATOM     12  C   UNL     1      32.983  67.202  40.694  1.00  0.00     0.067 C 
ATOM     13  C   UNL     1      33.481  68.042  40.477  1.00  0.00     0.231 C 
ATOM     14  C   UNL     1      31.988  67.174  40.604  1.00  0.00     0.016 C 
ATOM     15  O   UNL     1      34.477  68.070  40.567  1.00  0.00    -0.285 OA
ATOM     16  C   UNL     1      31.490  67.985  40.298  1.00  0.00     0.005 C 
ATOM     17  C   UNL     1      31.988  68.825  40.081  1.00  0.00     0.051 C 
ATOM     18  F   UNL     1      36.397  63.541  42.190  1.00  0.00    -0.206 F 
ATOM     19  H   UNL     1      34.877  66.772  41.017  1.00  0.00     0.168 HD
ATOM     20  H   UNL     1      32.473  65.375  41.222  1.00  0.00     0.168 HD
BRANCH   5  21
ATOM     21  C   UNL     1      34.673  62.539  42.337  1.00  0.00     0.125 C 
ATOM     22  N   UNL     1      35.236  61.864  41.861  1.00  0.00    -0.384 N 
ATOM     23  N   UNL     1      34.109  62.261  43.115  1.00  0.00    -0.284 NA
ATOM     24  H   UNL     1      35.236  61.273  42.048  1.00  0.00     0.158 HD
ATOM     25  H   UNL     1      35.586  62.036  41.379  1.00  0.00     0.158 HD
ATOM     26  H   UNL     1      34.109  61.670  43.302  1.00  0.00     0.189 HD
ENDBRANCH   5  21
ENDBRANCH   1   2
BRANCH   1  27
ATOM     27  C   UNL     1      33.126  70.577  40.258  1.00  0.00     0.232 C 
BRANCH  27  28
ATOM     28  C   UNL     1      33.722  71.381  40.260  1.00  0.00     0.020 C 
ATOM     29  C   UNL     1      33.864  71.900  39.418  1.00  0.00     0.011 C 
ATOM     30  C   UNL     1      34.174  71.664  41.106  1.00  0.00     0.011 C 
ENDBRANCH  27  28
ENDBRANCH   1  27
TORSDOF 4
ENDMDL
MODEL 8
REMARK VINA RESULT:    -7.076      4.419      5.591
REMARK INTER + INTRA:          -5.197
REMARK INTER:                  -8.332
REMARK INTRA:                   3.135
REMARK UNBOUND:                 3.534
REMARK SMILES [H]/N=C(\N)c1cc2c(cc1F)N/C(=C1/C=CC=C(OCC(C)C)C1=O)N2
REMARK SMILES IDX 19 1 18 2 10 3 9 4 5 5 8 6 6 7 12 8 7 9 13 10 26 11 14 12
REMARK SMILES IDX 24 13 15 14 25 15 16 16 17 17 11 18 3 21 4 22 2 23 1 26
REMARK SMILES IDX 20 27 21 28 22 29 23 30
REMARK H PARENT 12 19 26 20 4 24 4 25
ROOT
ATOM      1  O   UNL     1      38.300  66.758  42.611  1.00  0.00    -0.489 OA
ENDROOT
BRANCH   1   2
ATOM      2  C   UNL     1      37.574  66.215  42.190  1.00  0.00     0.167 C 
ATOM      3  C   UNL     1      32.486  68.399  40.555  1.00  0.00     0.136 A 
ATOM      4  C   UNL     1      33.403  68.462  40.950  1.00  0.00     0.068 A 
ATOM      5  C   UNL     1      32.144  67.521  40.221  1.00  0.00     0.054 A 
ATOM      6  C   UNL     1      33.978  67.646  41.010  1.00  0.00     0.066 A 
ATOM      7  C   UNL     1      32.720  66.705  40.281  1.00  0.00     0.043 A 
ATOM      8  N   UNL     1      34.897  67.502  41.360  1.00  0.00    -0.339 N 
ATOM      9  C   UNL     1      33.636  66.768  40.675  1.00  0.00     0.064 A 
ATOM     10  C   UNL     1      35.125  66.541  41.244  1.00  0.00     0.119 C 
ATOM     11  N   UNL     1      34.347  66.088  40.821  1.00  0.00    -0.339 N 
ATOM     12  C   UNL     1      35.986  66.106  41.507  1.00  0.00     0.067 C 
ATOM     13  C   UNL     1      36.713  66.650  41.928  1.00  0.00     0.231 C 
ATOM     14  C   UNL     1      36.121  65.128  41.348  1.00  0.00     0.016 C 
ATOM     15  O   UNL     1      36.578  67.628  42.086  1.00  0.00    -0.285 OA
ATOM     16  C   UNL     1      36.983  64.693  41.610  1.00  0.00     0.005 C 
ATOM     17  C   UNL     1      37.709  65.237  42.031  1.00  0.00     0.051 C 
ATOM     18  F   UNL     1      31.911  69.215  40.496  1.00  0.00    -0.206 F 
ATOM     19  H   UNL     1      35.264  67.936  41.608  1.00  0.00     0.168 HD
ATOM     20  H   UNL     1      34.312  65.487  40.675  1.00  0.00     0.168 HD
BRANCH   5  21
ATOM     21  C   UNL     1      31.228  67.459  39.826  1.00  0.00     0.125 C 
ATOM     22  N   UNL     1      31.063  67.776  38.892  1.00  0.00    -0.384 N 
ATOM     23  N   UNL     1      30.476  67.079  40.365  1.00  0.00    -0.284 NA
ATOM     24  H   UNL     1      30.494  67.737  38.647  1.00  0.00     0.158 HD
ATOM     25  H   UNL     1      31.529  68.011  38.558  1.00  0.00     0.158 HD
ATOM     26  H   UNL     1      29.908  67.040  40.120  1.00  0.00     0.189 HD
ENDBRANCH   5  21
ENDBRANCH   1   2
BRANCH   1  27
ATOM     27  C   UNL     1      38.922  66.335  43.271  1.00  0.00     0.232 C 
BRANCH  27  28
ATOM     28  C   UNL     1      39.515  66.908  43.837  1.00  0.00     0.020 C 
ATOM     29  C   UNL     1      40.329  67.331  43.439  1.00  0.00     0.011 C 
ATOM     30  C   UNL     1      39.294  67.059  44.800  1.00  0.00     0.011 C 
ENDBRANCH  27  28
ENDBRANCH   1  27
TORSDOF 4
ENDMDL
MODEL 9
REMARK VINA RESULT:    -6.993      5.357      5.983
REMARK INTER + INTRA:          -5.094
REMARK INTER:                  -8.244
REMARK INTRA:                   3.149
REMARK UNBOUND:                 3.534
REMARK SMILES [H]/N=C(\N)c1cc2c(cc1F)N/C(=C1/C=CC=C(OCC(C)C)C1=O)N2
REMARK SMILES IDX 19 1 18 2 10 3 9 4 5 5 8 6 6 7 12 8 7 9 13 10 26 11 14 12
REMARK SMILES IDX 24 13 15 14 25 15 16 16 17 17 11 18 3 21 4 22 2 23 1 26
REMARK SMILES IDX 20 27 21 28 22 29 23 30
REMARK H PARENT 12 19 26 20 4 24 4 25
ROOT
ATOM      1  O   UNL     1      38.292  67.599  43.385  1.00  0.00    -0.489 OA
ENDROOT
BRANCH   1   2
ATOM      2  C   UNL     1      37.645  68.174  42.884  1.00  0.00     0.167 C 
ATOM      3  C   UNL     1      32.618  66.253  40.792  1.00  0.00     0.136 A 
ATOM      4  C   UNL     1      33.486  66.147  41.277  1.00  0.00     0.068 A 
ATOM      5  C   UNL     1      32.365  67.142  40.409  1.00  0.00     0.054 A 
ATOM      6  C   UNL     1      34.101  66.929  41.379  1.00  0.00     0.066 A 
ATOM      7  C   UNL     1      32.980  67.924  40.511  1.00  0.00     0.043 A 
ATOM      8  N   UNL     1      34.988  67.026  41.816  1.00  0.00    -0.339 N 
ATOM      9  C   UNL     1      33.848  67.817  40.996  1.00  0.00     0.064 A 
ATOM     10  C   UNL     1      35.285  67.969  41.706  1.00  0.00     0.119 C 
ATOM     11  N   UNL     1      34.581  68.457  41.200  1.00  0.00    -0.339 N 
ATOM     12  C   UNL     1      36.141  68.359  42.044  1.00  0.00     0.067 C 
ATOM     13  C   UNL     1      36.788  67.784  42.545  1.00  0.00     0.231 C 
ATOM     14  C   UNL     1      36.350  69.323  41.882  1.00  0.00     0.016 C 
ATOM     15  O   UNL     1      36.579  66.820  42.707  1.00  0.00    -0.285 OA
ATOM     16  C   UNL     1      37.206  69.713  42.221  1.00  0.00     0.005 C 
ATOM     17  C   UNL     1      37.854  69.138  42.722  1.00  0.00     0.051 C 
ATOM     18  F   UNL     1      32.002  65.472  40.690  1.00  0.00    -0.206 F 
ATOM     19  H   UNL     1      35.302  66.578  42.107  1.00  0.00     0.168 HD
ATOM     20  H   UNL     1      34.597  69.055  41.040  1.00  0.00     0.168 HD
BRANCH   5  21
ATOM     21  C   UNL     1      31.496  67.249  39.925  1.00  0.00     0.125 C 
ATOM     22  N   UNL     1      31.474  67.216  38.925  1.00  0.00    -0.384 N 
ATOM     23  N   UNL     1      30.650  67.388  40.439  1.00  0.00    -0.284 NA
ATOM     24  H   UNL     1      30.936  67.282  38.625  1.00  0.00     0.158 HD
ATOM     25  H   UNL     1      31.999  67.130  38.606  1.00  0.00     0.158 HD
ATOM     26  H   UNL     1      30.112  67.454  40.139  1.00  0.00     0.189 HD
ENDBRANCH   5  21
ENDBRANCH   1   2
BRANCH   1  27
ATOM     27  C   UNL     1      38.744  67.952  44.204  1.00  0.00     0.232 C 
BRANCH  27  28
ATOM     28  C   UNL     1      39.229  67.328  44.816  1.00  0.00     0.020 C 
ATOM     29  C   UNL     1      40.143  67.002  44.575  1.00  0.00     0.011 C 
ATOM     30  C   UNL     1      38.800  67.029  45.668  1.00  0.00     0.011 C 
ENDBRANCH  27  28
ENDBRANCH   1  27
TORSDOF 4
ENDMDL
