MODEL 1
REMARK VINA RESULT:     0.000      0.000      0.000
REMARK INTER + INTRA:           3.088
REMARK INTER:                   0.000
REMARK INTRA:                   3.088
REMARK UNBOUND:                 3.088
REMARK SMILES [H]/N=C(\N)c1cc2c(cc1F)N/C(=C1/C=CC=C(OCC(C)C)C1=O)N2
REMARK SMILES IDX 19 1 18 2 10 3 9 4 5 5 8 6 6 7 12 8 7 9 13 10 26 11 14 12
REMARK SMILES IDX 24 13 15 14 25 15 16 16 17 17 11 18 3 21 4 22 2 23 1 26
REMARK SMILES IDX 20 27 21 28 22 29 23 30
REMARK H PARENT 12 19 26 20 4 24 4 25
ROOT
ATOM      1  O   UNL     1       7.548  21.036  15.726  1.00  0.00    -0.489 OA
ENDROOT
BRANCH   1   2
ATOM      2  C   UNL     1       7.875  20.354  15.072  1.00  0.00     0.167 C 
ATOM      3  C   UNL     1      13.440  18.960  14.419  1.00  0.00     0.136 A 
ATOM      4  C   UNL     1      12.687  19.469  14.836  1.00  0.00     0.068 A 
ATOM      5  C   UNL     1      13.253  18.288  13.703  1.00  0.00     0.054 A 
ATOM      6  C   UNL     1      11.747  19.305  14.536  1.00  0.00     0.066 A 
ATOM      7  C   UNL     1      12.313  18.124  13.404  1.00  0.00     0.043 A 
ATOM      8  N   UNL     1      10.879  19.699  14.819  1.00  0.00    -0.339 N 
ATOM      9  C   UNL     1      11.560  18.632  13.820  1.00  0.00     0.064 A 
ATOM     10  C   UNL     1      10.158  19.273  14.282  1.00  0.00     0.119 C 
ATOM     11  N   UNL     1      10.578  18.616  13.666  1.00  0.00    -0.339 N 
ATOM     12  C   UNL     1       9.180  19.473  14.350  1.00  0.00     0.067 C 
ATOM     13  C   UNL     1       8.853  20.155  15.004  1.00  0.00     0.231 C 
ATOM     14  C   UNL     1       8.530  18.990  13.764  1.00  0.00     0.016 C 
ATOM     15  O   UNL     1       9.504  20.638  15.590  1.00  0.00    -0.285 OA
ATOM     16  C   UNL     1       7.552  19.189  13.832  1.00  0.00     0.005 C 
ATOM     17  C   UNL     1       7.225  19.871  14.486  1.00  0.00     0.051 C 
ATOM     18  F   UNL     1      14.380  19.124  14.718  1.00  0.00    -0.206 F 
ATOM     19  H   UNL     1      10.800  20.133  15.254  1.00  0.00     0.168 HD
ATOM     20  H   UNL     1      10.280  18.258  13.258  1.00  0.00     0.168 HD
BRANCH   5  21
ATOM     21  C   UNL     1      14.007  17.779  13.286  1.00  0.00     0.125 C 
ATOM     22  N   UNL     1      14.299  16.907  13.679  1.00  0.00    -0.384 N 
ATOM     23  N   UNL     1      14.467  18.142  12.476  1.00  0.00    -0.284 NA
ATOM     24  H   UNL     1      14.766  16.592  13.421  1.00  0.00     0.158 HD
ATOM     25  H   UNL     1      14.014  16.682  14.181  1.00  0.00     0.158 HD
ATOM     26  H   UNL     1      14.934  17.826  12.217  1.00  0.00     0.189 HD
ENDBRANCH   5  21
ENDBRANCH   1   2
BRANCH   1  27
ATOM     27  C   UNL     1       6.700  21.535  15.547  1.00  0.00     0.232 C 
BRANCH  27  28
ATOM     28  C   UNL     1       6.438  22.302  16.132  1.00  0.00     0.020 C 
ATOM     29  C   UNL     1       5.936  22.135  16.980  1.00  0.00     0.011 C 
ATOM     30  C   UNL     1       6.678  23.236  15.868  1.00  0.00     0.011 C 
ENDBRANCH  27  28
ENDBRANCH   1  27
TORSDOF 4
ENDMDL
MODEL 2
REMARK VINA RESULT:     0.000      1.558      2.044
REMARK INTER + INTRA:           3.088
REMARK INTER:                   0.000
REMARK INTRA:                   3.088
REMARK UNBOUND:                 3.088
REMARK SMILES [H]/N=C(\N)c1cc2c(cc1F)N/C(=C1/C=CC=C(OCC(C)C)C1=O)N2
REMARK SMILES IDX 19 1 18 2 10 3 9 4 5 5 8 6 6 7 12 8 7 9 13 10 26 11 14 12
REMARK SMILES IDX 24 13 15 14 25 15 16 16 17 17 11 18 3 21 4 22 2 23 1 26
REMARK SMILES IDX 20 27 21 28 22 29 23 30
REMARK H PARENT 12 19 26 20 4 24 4 25
ROOT
ATOM      1  O   UNL     1       5.683  21.267  16.384  1.00  0.00    -0.489 OA
ENDROOT
BRANCH   1   2
ATOM      2  C   UNL     1       6.130  20.550  15.849  1.00  0.00     0.167 C 
ATOM      3  C   UNL     1      11.847  19.752  15.716  1.00  0.00     0.136 A 
ATOM      4  C   UNL     1      11.014  20.218  16.015  1.00  0.00     0.068 A 
ATOM      5  C   UNL     1      11.788  18.976  15.089  1.00  0.00     0.054 A 
ATOM      6  C   UNL     1      10.122  19.907  15.687  1.00  0.00     0.066 A 
ATOM      7  C   UNL     1      10.896  18.665  14.760  1.00  0.00     0.043 A 
ATOM      8  N   UNL     1       9.198  20.228  15.863  1.00  0.00    -0.339 N 
ATOM      9  C   UNL     1      10.063  19.130  15.060  1.00  0.00     0.064 A 
ATOM     10  C   UNL     1       8.569  19.655  15.348  1.00  0.00     0.119 C 
ATOM     11  N   UNL     1       9.103  18.978  14.852  1.00  0.00    -0.339 N 
ATOM     12  C   UNL     1       7.573  19.744  15.331  1.00  0.00     0.067 C 
ATOM     13  C   UNL     1       7.126  20.461  15.866  1.00  0.00     0.231 C 
ATOM     14  C   UNL     1       7.024  19.116  14.779  1.00  0.00     0.016 C 
ATOM     15  O   UNL     1       7.675  21.088  16.418  1.00  0.00    -0.285 OA
ATOM     16  C   UNL     1       6.028  19.205  14.762  1.00  0.00     0.005 C 
ATOM     17  C   UNL     1       5.581  19.922  15.297  1.00  0.00     0.051 C 
ATOM     18  F   UNL     1      12.739  20.063  16.045  1.00  0.00    -0.206 F 
ATOM     19  H   UNL     1       9.040  20.702  16.229  1.00  0.00     0.168 HD
ATOM     20  H   UNL     1       8.876  18.538  14.479  1.00  0.00     0.168 HD
BRANCH   5  21
ATOM     21  C   UNL     1      12.621  18.510  14.789  1.00  0.00     0.125 C 
ATOM     22  N   UNL     1      12.978  17.737  15.314  1.00  0.00    -0.384 N 
ATOM     23  N   UNL     1      13.097  18.818  13.966  1.00  0.00    -0.284 NA
ATOM     24  H   UNL     1      13.494  17.449  15.128  1.00  0.00     0.158 HD
ATOM     25  H   UNL     1      12.682  17.547  15.825  1.00  0.00     0.158 HD
ATOM     26  H   UNL     1      13.613  18.530  13.780  1.00  0.00     0.189 HD
ENDBRANCH   5  21
ENDBRANCH   1   2
BRANCH   1  27
ATOM     27  C   UNL     1       4.801  21.634  16.089  1.00  0.00     0.232 C 
BRANCH  27  28
ATOM     28  C   UNL     1       4.414  22.434  16.548  1.00  0.00     0.020 C 
ATOM     29  C   UNL     1       3.873  22.320  17.381  1.00  0.00     0.011 C 
ATOM     30  C   UNL     1       4.569  23.349  16.174  1.00  0.00     0.011 C 
ENDBRANCH  27  28
ENDBRANCH   1  27
TORSDOF 4
ENDMDL
MODEL 3
REMARK VINA RESULT:     0.000      6.422      7.927
REMARK INTER + INTRA:           3.088
REMARK INTER:                   0.000
REMARK INTRA:                   3.088
REMARK UNBOUND:                 3.088
REMARK SMILES [H]/N=C(\N)c1cc2c(cc1F)N/C(=C1/C=CC=C(OCC(C)C)C1=O)N2
REMARK SMILES IDX 19 1 18 2 10 3 9 4 5 5 8 6 6 7 12 8 7 9 13 10 26 11 14 12
REMARK SMILES IDX 24 13 15 14 25 15 16 16 17 17 11 18 3 21 4 22 2 23 1 26
REMARK SMILES IDX 20 27 21 28 22 29 23 30
REMARK H PARENT 12 19 26 20 4 24 4 25
ROOT
ATOM      1  O   UNL     1      14.047  19.107   8.229  1.00  0.00    -0.489 OA
ENDROOT
BRANCH   1   2
ATOM      2  C   UNL     1      13.327  18.456   7.987  1.00  0.00     0.167 C 
ATOM      3  C   UNL     1      10.961  14.761  11.739  1.00  0.00     0.136 A 
ATOM      4  C   UNL     1      11.591  15.492  11.478  1.00  0.00     0.068 A 
ATOM      5  C   UNL     1      10.345  14.365  11.058  1.00  0.00     0.054 A 
ATOM      6  C   UNL     1      11.605  15.828  10.536  1.00  0.00     0.066 A 
ATOM      7  C   UNL     1      10.358  14.701  10.116  1.00  0.00     0.043 A 
ATOM      8  N   UNL     1      12.144  16.532  10.087  1.00  0.00    -0.339 N 
ATOM      9  C   UNL     1      10.988  15.432   9.855  1.00  0.00     0.064 A 
ATOM     10  C   UNL     1      11.865  16.573   9.133  1.00  0.00     0.119 C 
ATOM     11  N   UNL     1      11.152  15.895   8.991  1.00  0.00    -0.339 N 
ATOM     12  C   UNL     1      12.236  17.189   8.439  1.00  0.00     0.067 C 
ATOM     13  C   UNL     1      12.956  17.840   8.681  1.00  0.00     0.231 C 
ATOM     14  C   UNL     1      11.888  17.155   7.502  1.00  0.00     0.016 C 
ATOM     15  O   UNL     1      13.304  17.875   9.618  1.00  0.00    -0.285 OA
ATOM     16  C   UNL     1      12.260  17.771   6.808  1.00  0.00     0.005 C 
ATOM     17  C   UNL     1      12.979  18.422   7.050  1.00  0.00     0.051 C 
ATOM     18  F   UNL     1      10.947  14.425  12.680  1.00  0.00    -0.206 F 
ATOM     19  H   UNL     1      12.579  16.884  10.354  1.00  0.00     0.168 HD
ATOM     20  H   UNL     1      10.860  15.781   8.456  1.00  0.00     0.168 HD
BRANCH   5  21
ATOM     21  C   UNL     1       9.715  13.634  11.319  1.00  0.00     0.125 C 
ATOM     22  N   UNL     1      10.001  12.678  11.247  1.00  0.00    -0.384 N 
ATOM     23  N   UNL     1       8.798  13.858  11.651  1.00  0.00    -0.284 NA
ATOM     24  H   UNL     1       9.610  12.224  11.409  1.00  0.00     0.158 HD
ATOM     25  H   UNL     1      10.569  12.539  11.042  1.00  0.00     0.158 HD
ATOM     26  H   UNL     1       8.408  13.404  11.813  1.00  0.00     0.189 HD
ENDBRANCH   5  21
ENDBRANCH   1   2
BRANCH   1  27
ATOM     27  C   UNL     1      14.141  19.962   7.719  1.00  0.00     0.232 C 
BRANCH  27  28
ATOM     28  C   UNL     1      14.773  20.668   8.038  1.00  0.00     0.020 C 
ATOM     29  C   UNL     1      15.738  20.629   7.779  1.00  0.00     0.011 C 
ATOM     30  C   UNL     1      14.440  21.413   8.616  1.00  0.00     0.011 C 
ENDBRANCH  27  28
ENDBRANCH   1  27
TORSDOF 4
ENDMDL
MODEL 4
REMARK VINA RESULT:     0.000      7.918     10.220
REMARK INTER + INTRA:           3.088
REMARK INTER:                   0.000
REMARK INTRA:                   3.088
REMARK UNBOUND:                 3.088
REMARK SMILES [H]/N=C(\N)c1cc2c(cc1F)N/C(=C1/C=CC=C(OCC(C)C)C1=O)N2
REMARK SMILES IDX 19 1 18 2 10 3 9 4 5 5 8 6 6 7 12 8 7 9 13 10 26 11 14 12
REMARK SMILES IDX 24 13 15 14 25 15 16 16 17 17 11 18 3 21 4 22 2 23 1 26
REMARK SMILES IDX 20 27 21 28 22 29 23 30
REMARK H PARENT 12 19 26 20 4 24 4 25
ROOT
ATOM      1  O   UNL     1      15.815  14.198  12.088  1.00  0.00    -0.489 OA
ENDROOT
BRANCH   1   2
ATOM      2  C   UNL     1      16.756  14.307  11.768  1.00  0.00     0.167 C 
ATOM      3  C   UNL     1      18.318  18.018   7.630  1.00  0.00     0.136 A 
ATOM      4  C   UNL     1      17.653  17.574   8.231  1.00  0.00     0.068 A 
ATOM      5  C   UNL     1      19.283  17.763   7.677  1.00  0.00     0.054 A 
ATOM      6  C   UNL     1      17.954  16.874   8.879  1.00  0.00     0.066 A 
ATOM      7  C   UNL     1      19.585  17.063   8.326  1.00  0.00     0.043 A 
ATOM      8  N   UNL     1      17.462  16.328   9.547  1.00  0.00    -0.339 N 
ATOM      9  C   UNL     1      18.920  16.619   8.926  1.00  0.00     0.064 A 
ATOM     10  C   UNL     1      18.116  15.737  10.006  1.00  0.00     0.119 C 
ATOM     11  N   UNL     1      19.016  15.917   9.623  1.00  0.00    -0.339 N 
ATOM     12  C   UNL     1      17.907  15.076  10.727  1.00  0.00     0.067 C 
ATOM     13  C   UNL     1      16.966  14.967  11.047  1.00  0.00     0.231 C 
ATOM     14  C   UNL     1      18.638  14.525  11.129  1.00  0.00     0.016 C 
ATOM     15  O   UNL     1      16.234  15.518  10.646  1.00  0.00    -0.285 OA
ATOM     16  C   UNL     1      18.428  13.865  11.850  1.00  0.00     0.005 C 
ATOM     17  C   UNL     1      17.487  13.756  12.170  1.00  0.00     0.051 C 
ATOM     18  F   UNL     1      18.016  18.718   6.982  1.00  0.00    -0.206 F 
ATOM     19  H   UNL     1      16.852  16.351   9.659  1.00  0.00     0.168 HD
ATOM     20  H   UNL     1      19.545  15.639   9.790  1.00  0.00     0.168 HD
BRANCH   5  21
ATOM     21  C   UNL     1      19.948  18.207   7.077  1.00  0.00     0.125 C 
ATOM     22  N   UNL     1      20.148  17.817   6.177  1.00  0.00    -0.384 N 
ATOM     23  N   UNL     1      20.413  19.041   7.375  1.00  0.00    -0.284 NA
ATOM     24  H   UNL     1      20.560  18.093   5.805  1.00  0.00     0.158 HD
ATOM     25  H   UNL     1      19.860  17.300   5.993  1.00  0.00     0.158 HD
ATOM     26  H   UNL     1      20.825  19.316   7.002  1.00  0.00     0.189 HD
ENDBRANCH   5  21
ENDBRANCH   1   2
BRANCH   1  27
ATOM     27  C   UNL     1      15.637  13.887  13.021  1.00  0.00     0.232 C 
BRANCH  27  28
ATOM     28  C   UNL     1      14.704  13.898  13.383  1.00  0.00     0.020 C 
ATOM     29  C   UNL     1      14.093  13.125  13.212  1.00  0.00     0.011 C 
ATOM     30  C   UNL     1      14.383  14.681  13.915  1.00  0.00     0.011 C 
ENDBRANCH  27  28
ENDBRANCH   1  27
TORSDOF 4
ENDMDL
MODEL 5
REMARK VINA RESULT:     0.007      9.967     11.180
REMARK INTER + INTRA:           3.097
REMARK INTER:                   0.000
REMARK INTRA:                   3.097
REMARK UNBOUND:                 3.088
REMARK SMILES [H]/N=C(\N)c1cc2c(cc1F)N/C(=C1/C=CC=C(OCC(C)C)C1=O)N2
REMARK SMILES IDX 19 1 18 2 10 3 9 4 5 5 8 6 6 7 12 8 7 9 13 10 26 11 14 12
REMARK SMILES IDX 24 13 15 14 25 15 16 16 17 17 11 18 3 21 4 22 2 23 1 26
REMARK SMILES IDX 20 27 21 28 22 29 23 30
REMARK H PARENT 12 19 26 20 4 24 4 25
ROOT
ATOM      1  O   UNL     1      17.486  23.585  19.579  1.00  0.00    -0.489 OA
ENDROOT
BRANCH   1   2
ATOM      2  C   UNL     1      18.180  23.191  18.977  1.00  0.00     0.167 C 
ATOM      3  C   UNL     1      20.881  26.169  14.833  1.00  0.00     0.136 A 
ATOM      4  C   UNL     1      20.230  26.070  15.585  1.00  0.00     0.068 A 
ATOM      5  C   UNL     1      21.431  25.387  14.541  1.00  0.00     0.054 A 
ATOM      6  C   UNL     1      20.129  25.188  16.046  1.00  0.00     0.066 A 
ATOM      7  C   UNL     1      21.331  24.506  15.002  1.00  0.00     0.043 A 
ATOM      8  N   UNL     1      19.551  24.891  16.798  1.00  0.00    -0.339 N 
ATOM      9  C   UNL     1      20.680  24.406  15.755  1.00  0.00     0.064 A 
ATOM     10  C   UNL     1      19.741  23.930  16.973  1.00  0.00     0.119 C 
ATOM     11  N   UNL     1      20.438  23.632  16.329  1.00  0.00    -0.339 N 
ATOM     12  C   UNL     1      19.307  23.364  17.673  1.00  0.00     0.067 C 
ATOM     13  C   UNL     1      18.614  23.758  18.276  1.00  0.00     0.231 C 
ATOM     14  C   UNL     1      19.567  22.403  17.771  1.00  0.00     0.016 C 
ATOM     15  O   UNL     1      18.354  24.718  18.178  1.00  0.00    -0.285 OA
ATOM     16  C   UNL     1      19.134  21.837  18.472  1.00  0.00     0.005 C 
ATOM     17  C   UNL     1      18.440  22.231  19.075  1.00  0.00     0.051 C 
ATOM     18  F   UNL     1      20.981  27.051  14.372  1.00  0.00    -0.206 F 
ATOM     19  H   UNL     1      19.143  25.242  17.105  1.00  0.00     0.168 HD
ATOM     20  H   UNL     1      20.678  23.061  16.292  1.00  0.00     0.168 HD
BRANCH   5  21
ATOM     21  C   UNL     1      22.082  25.487  13.789  1.00  0.00     0.125 C 
ATOM     22  N   UNL     1      23.025  25.761  13.977  1.00  0.00    -0.384 N 
ATOM     23  N   UNL     1      21.790  25.312  12.849  1.00  0.00    -0.284 NA
ATOM     24  H   UNL     1      23.429  25.823  13.510  1.00  0.00     0.158 HD
ATOM     25  H   UNL     1      23.206  25.870  14.560  1.00  0.00     0.158 HD
ATOM     26  H   UNL     1      22.194  25.374  12.382  1.00  0.00     0.189 HD
ENDBRANCH   5  21
ENDBRANCH   1   2
BRANCH   1  27
ATOM     27  C   UNL     1      17.346  23.207  20.495  1.00  0.00     0.232 C 
BRANCH  27  28
ATOM     28  C   UNL     1      16.745  23.676  21.142  1.00  0.00     0.020 C 
ATOM     29  C   UNL     1      15.761  23.502  21.128  1.00  0.00     0.011 C 
ATOM     30  C   UNL     1      17.129  24.319  21.805  1.00  0.00     0.011 C 
ENDBRANCH  27  28
ENDBRANCH   1  27
TORSDOF 4
ENDMDL
MODEL 6
REMARK VINA RESULT:     0.007      8.289     10.087
REMARK INTER + INTRA:           3.097
REMARK INTER:                   0.000
REMARK INTRA:                   3.097
REMARK UNBOUND:                 3.088
REMARK SMILES [H]/N=C(\N)c1cc2c(cc1F)N/C(=C1/C=CC=C(OCC(C)C)C1=O)N2
REMARK SMILES IDX 19 1 18 2 10 3 9 4 5 5 8 6 6 7 12 8 7 9 13 10 26 11 14 12
REMARK SMILES IDX 24 13 15 14 25 15 16 16 17 17 11 18 3 21 4 22 2 23 1 26
REMARK SMILES IDX 20 27 21 28 22 29 23 30
REMARK H PARENT 12 19 26 20 4 24 4 25
ROOT
ATOM      1  O   UNL     1      17.029  16.113  16.694  1.00  0.00    -0.489 OA
ENDROOT
BRANCH   1   2
ATOM      2  C   UNL     1      17.754  16.044  16.009  1.00  0.00     0.167 C 
ATOM      3  C   UNL     1      18.052  11.825  12.079  1.00  0.00     0.136 A 
ATOM      4  C   UNL     1      17.634  12.301  12.853  1.00  0.00     0.068 A 
ATOM      5  C   UNL     1      18.891  12.182  11.666  1.00  0.00     0.054 A 
ATOM      6  C   UNL     1      18.055  13.133  13.215  1.00  0.00     0.066 A 
ATOM      7  C   UNL     1      19.311  13.014  12.028  1.00  0.00     0.043 A 
ATOM      8  N   UNL     1      17.800  13.738  13.961  1.00  0.00    -0.339 N 
ATOM      9  C   UNL     1      18.893  13.489  12.803  1.00  0.00     0.064 A 
ATOM     10  C   UNL     1      18.476  14.466  14.012  1.00  0.00     0.119 C 
ATOM     11  N   UNL     1      19.150  14.312  13.297  1.00  0.00    -0.339 N 
ATOM     12  C   UNL     1      18.478  15.221  14.668  1.00  0.00     0.067 C 
ATOM     13  C   UNL     1      17.752  15.290  15.353  1.00  0.00     0.231 C 
ATOM     14  C   UNL     1      19.205  15.907  14.639  1.00  0.00     0.016 C 
ATOM     15  O   UNL     1      17.025  14.603  15.382  1.00  0.00    -0.285 OA
ATOM     16  C   UNL     1      19.206  16.662  15.295  1.00  0.00     0.005 C 
ATOM     17  C   UNL     1      18.481  16.730  15.980  1.00  0.00     0.051 C 
ATOM     18  F   UNL     1      17.631  10.994  11.717  1.00  0.00    -0.206 F 
ATOM     19  H   UNL     1      17.307  13.674  14.330  1.00  0.00     0.168 HD
ATOM     20  H   UNL     1      19.645  14.668  13.181  1.00  0.00     0.168 HD
BRANCH   5  21
ATOM     21  C   UNL     1      19.308  11.706  10.892  1.00  0.00     0.125 C 
ATOM     22  N   UNL     1      19.046  11.946   9.958  1.00  0.00    -0.384 N 
ATOM     23  N   UNL     1      19.989  10.992  11.053  1.00  0.00    -0.284 NA
ATOM     24  H   UNL     1      19.305  11.651   9.478  1.00  0.00     0.158 HD
ATOM     25  H   UNL     1      18.623  12.389   9.858  1.00  0.00     0.158 HD
ATOM     26  H   UNL     1      20.249  10.697  10.573  1.00  0.00     0.189 HD
ENDBRANCH   5  21
ENDBRANCH   1   2
BRANCH   1  27
ATOM     27  C   UNL     1      17.206  16.568  17.567  1.00  0.00     0.232 C 
BRANCH  27  28
ATOM     28  C   UNL     1      16.527  16.526  18.299  1.00  0.00     0.020 C 
ATOM     29  C   UNL     1      15.777  17.188  18.324  1.00  0.00     0.011 C 
ATOM     30  C   UNL     1      16.597  15.824  19.007  1.00  0.00     0.011 C 
ENDBRANCH  27  28
ENDBRANCH   1  27
TORSDOF 4
ENDMDL
MODEL 7
REMARK VINA RESULT:     0.007      6.175      8.116
REMARK INTER + INTRA:           3.097
REMARK INTER:                   0.000
REMARK INTRA:                   3.097
REMARK UNBOUND:                 3.088
REMARK SMILES [H]/N=C(\N)c1cc2c(cc1F)N/C(=C1/C=CC=C(OCC(C)C)C1=O)N2
REMARK SMILES IDX 19 1 18 2 10 3 9 4 5 5 8 6 6 7 12 8 7 9 13 10 26 11 14 12
REMARK SMILES IDX 24 13 15 14 25 15 16 16 17 17 11 18 3 21 4 22 2 23 1 26
REMARK SMILES IDX 20 27 21 28 22 29 23 30
REMARK H PARENT 12 19 26 20 4 24 4 25
ROOT
ATOM      1  O   UNL     1      15.330  20.006  16.843  1.00  0.00    -0.489 OA
ENDROOT
BRANCH   1   2
ATOM      2  C   UNL     1      15.338  20.981  16.619  1.00  0.00     0.167 C 
ATOM      3  C   UNL     1      19.138  23.402  13.009  1.00  0.00     0.136 A 
ATOM      4  C   UNL     1      18.739  22.631  13.504  1.00  0.00     0.068 A 
ATOM      5  C   UNL     1      18.751  24.319  13.116  1.00  0.00     0.054 A 
ATOM      6  C   UNL     1      17.953  22.775  14.106  1.00  0.00     0.066 A 
ATOM      7  C   UNL     1      17.966  24.463  13.717  1.00  0.00     0.043 A 
ATOM      8  N   UNL     1      17.424  22.153  14.673  1.00  0.00    -0.339 N 
ATOM      9  C   UNL     1      17.567  23.691  14.213  1.00  0.00     0.064 A 
ATOM     10  C   UNL     1      16.713  22.679  15.128  1.00  0.00     0.119 C 
ATOM     11  N   UNL     1      16.802  23.628  14.844  1.00  0.00    -0.339 N 
ATOM     12  C   UNL     1      16.029  22.317  15.761  1.00  0.00     0.067 C 
ATOM     13  C   UNL     1      16.022  21.343  15.986  1.00  0.00     0.231 C 
ATOM     14  C   UNL     1      15.353  22.930  16.170  1.00  0.00     0.016 C 
ATOM     15  O   UNL     1      16.698  20.730  15.577  1.00  0.00    -0.285 OA
ATOM     16  C   UNL     1      14.669  22.567  16.804  1.00  0.00     0.005 C 
ATOM     17  C   UNL     1      14.661  21.593  17.028  1.00  0.00     0.051 C 
ATOM     18  F   UNL     1      19.923  23.258  12.408  1.00  0.00    -0.206 F 
ATOM     19  H   UNL     1      17.519  21.544  14.732  1.00  0.00     0.168 HD
ATOM     20  H   UNL     1      16.442  24.098  15.029  1.00  0.00     0.168 HD
BRANCH   5  21
ATOM     21  C   UNL     1      19.150  25.090  12.621  1.00  0.00     0.125 C 
ATOM     22  N   UNL     1      19.886  25.625  13.037  1.00  0.00    -0.384 N 
ATOM     23  N   UNL     1      18.814  25.327  11.709  1.00  0.00    -0.284 NA
ATOM     24  H   UNL     1      20.133  26.103  12.730  1.00  0.00     0.158 HD
ATOM     25  H   UNL     1      20.094  25.478  13.602  1.00  0.00     0.158 HD
ATOM     26  H   UNL     1      19.062  25.806  11.402  1.00  0.00     0.189 HD
ENDBRANCH   5  21
ENDBRANCH   1   2
BRANCH   1  27
ATOM     27  C   UNL     1      14.476  19.561  17.112  1.00  0.00     0.232 C 
BRANCH  27  28
ATOM     28  C   UNL     1      14.440  18.567  17.212  1.00  0.00     0.020 C 
ATOM     29  C   UNL     1      14.714  18.141  18.074  1.00  0.00     0.011 C 
ATOM     30  C   UNL     1      14.130  17.999  16.450  1.00  0.00     0.011 C 
ENDBRANCH  27  28
ENDBRANCH   1  27
TORSDOF 4
ENDMDL
MODEL 8
REMARK VINA RESULT:     0.012      4.096      7.502
REMARK INTER + INTRA:           3.103
REMARK INTER:                   0.000
REMARK INTRA:                   3.103
REMARK UNBOUND:                 3.088
REMARK SMILES [H]/N=C(\N)c1cc2c(cc1F)N/C(=C1/C=CC=C(OCC(C)C)C1=O)N2
REMARK SMILES IDX 19 1 18 2 10 3 9 4 5 5 8 6 6 7 12 8 7 9 13 10 26 11 14 12
REMARK SMILES IDX 24 13 15 14 25 15 16 16 17 17 11 18 3 21 4 22 2 23 1 26
REMARK SMILES IDX 20 27 21 28 22 29 23 30
REMARK H PARENT 12 19 26 20 4 24 4 25
ROOT
ATOM      1  O   UNL     1      15.302  16.260  15.310  1.00  0.00    -0.489 OA
ENDROOT
BRANCH   1   2
ATOM      2  C   UNL     1      14.514  15.735  15.633  1.00  0.00     0.167 C 
ATOM      3  C   UNL     1       9.356  18.072  16.759  1.00  0.00     0.136 A 
ATOM      4  C   UNL     1      10.313  18.109  16.469  1.00  0.00     0.068 A 
ATOM      5  C   UNL     1       8.949  17.200  17.029  1.00  0.00     0.054 A 
ATOM      6  C   UNL     1      10.862  17.274  16.450  1.00  0.00     0.066 A 
ATOM      7  C   UNL     1       9.498  16.365  17.010  1.00  0.00     0.043 A 
ATOM      8  N   UNL     1      11.808  17.104  16.199  1.00  0.00    -0.339 N 
ATOM      9  C   UNL     1      10.455  16.401  16.720  1.00  0.00     0.064 A 
ATOM     10  C   UNL     1      11.988  16.132  16.312  1.00  0.00     0.119 C 
ATOM     11  N   UNL     1      11.153  15.699  16.634  1.00  0.00    -0.339 N 
ATOM     12  C   UNL     1      12.857  15.671  16.134  1.00  0.00     0.067 C 
ATOM     13  C   UNL     1      13.645  16.196  15.811  1.00  0.00     0.231 C 
ATOM     14  C   UNL     1      12.939  14.685  16.279  1.00  0.00     0.016 C 
ATOM     15  O   UNL     1      13.563  17.182  15.666  1.00  0.00    -0.285 OA
ATOM     16  C   UNL     1      13.809  14.224  16.101  1.00  0.00     0.005 C 
ATOM     17  C   UNL     1      14.596  14.749  15.778  1.00  0.00     0.051 C 
ATOM     18  F   UNL     1       8.807  18.908  16.778  1.00  0.00    -0.206 F 
ATOM     19  H   UNL     1      12.216  17.529  16.005  1.00  0.00     0.168 HD
ATOM     20  H   UNL     1      11.080  15.096  16.759  1.00  0.00     0.168 HD
BRANCH   5  21
ATOM     21  C   UNL     1       7.992  17.163  17.318  1.00  0.00     0.125 C 
ATOM     22  N   UNL     1       7.272  17.004  16.643  1.00  0.00    -0.384 N 
ATOM     23  N   UNL     1       7.757  17.285  18.282  1.00  0.00    -0.284 NA
ATOM     24  H   UNL     1       6.679  16.981  16.823  1.00  0.00     0.158 HD
ATOM     25  H   UNL     1       7.418  16.928  16.046  1.00  0.00     0.158 HD
ATOM     26  H   UNL     1       7.164  17.262  18.462  1.00  0.00     0.189 HD
ENDBRANCH   5  21
ENDBRANCH   1   2
BRANCH   1  27
ATOM     27  C   UNL     1      16.007  15.815  14.758  1.00  0.00     0.232 C 
BRANCH  27  28
ATOM     28  C   UNL     1      16.725  16.362  14.329  1.00  0.00     0.020 C 
ATOM     29  C   UNL     1      17.549  16.599  14.845  1.00  0.00     0.011 C 
ATOM     30  C   UNL     1      16.621  16.673  13.384  1.00  0.00     0.011 C 
ENDBRANCH  27  28
ENDBRANCH   1  27
TORSDOF 4
ENDMDL
MODEL 9
REMARK VINA RESULT:     0.013      3.350      5.142
REMARK INTER + INTRA:           3.103
REMARK INTER:                   0.000
REMARK INTRA:                   3.103
REMARK UNBOUND:                 3.088
REMARK SMILES [H]/N=C(\N)c1cc2c(cc1F)N/C(=C1/C=CC=C(OCC(C)C)C1=O)N2
REMARK SMILES IDX 19 1 18 2 10 3 9 4 5 5 8 6 6 7 12 8 7 9 13 10 26 11 14 12
REMARK SMILES IDX 24 13 15 14 25 15 16 16 17 17 11 18 3 21 4 22 2 23 1 26
REMARK SMILES IDX 20 27 21 28 22 29 23 30
REMARK H PARENT 12 19 26 20 4 24 4 25
ROOT
ATOM      1  O   UNL     1      13.906  23.087  16.420  1.00  0.00    -0.489 OA
ENDROOT
BRANCH   1   2
ATOM      2  C   UNL     1      12.972  22.850  16.154  1.00  0.00     0.167 C 
ATOM      3  C   UNL     1      11.583  18.021  13.311  1.00  0.00     0.136 A 
ATOM      4  C   UNL     1      12.226  18.649  13.749  1.00  0.00     0.068 A 
ATOM      5  C   UNL     1      10.608  18.239  13.287  1.00  0.00     0.054 A 
ATOM      6  C   UNL     1      11.893  19.496  14.163  1.00  0.00     0.066 A 
ATOM      7  C   UNL     1      10.275  19.086  13.702  1.00  0.00     0.043 A 
ATOM      8  N   UNL     1      12.360  20.236  14.635  1.00  0.00    -0.339 N 
ATOM      9  C   UNL     1      10.918  19.715  14.139  1.00  0.00     0.064 A 
ATOM     10  C   UNL     1      11.680  20.909  14.904  1.00  0.00     0.119 C 
ATOM     11  N   UNL     1      10.790  20.588  14.598  1.00  0.00    -0.339 N 
ATOM     12  C   UNL     1      11.859  21.761  15.396  1.00  0.00     0.067 C 
ATOM     13  C   UNL     1      12.793  21.998  15.662  1.00  0.00     0.231 C 
ATOM     14  C   UNL     1      11.103  22.377  15.621  1.00  0.00     0.016 C 
ATOM     15  O   UNL     1      13.548  21.383  15.436  1.00  0.00    -0.285 OA
ATOM     16  C   UNL     1      11.282  23.229  16.113  1.00  0.00     0.005 C 
ATOM     17  C   UNL     1      12.217  23.465  16.379  1.00  0.00     0.051 C 
ATOM     18  F   UNL     1      11.916  17.173  12.897  1.00  0.00    -0.206 F 
ATOM     19  H   UNL     1      12.969  20.271  14.744  1.00  0.00     0.168 HD
ATOM     20  H   UNL     1      10.250  20.881  14.679  1.00  0.00     0.168 HD
BRANCH   5  21
ATOM     21  C   UNL     1       9.965  17.611  12.850  1.00  0.00     0.125 C 
ATOM     22  N   UNL     1       9.754  17.708  11.877  1.00  0.00    -0.384 N 
ATOM     23  N   UNL     1       9.533  16.884  13.385  1.00  0.00    -0.284 NA
ATOM     24  H   UNL     1       9.355  17.318  11.606  1.00  0.00     0.158 HD
ATOM     25  H   UNL     1      10.022  18.158  11.545  1.00  0.00     0.158 HD
ATOM     26  H   UNL     1       9.134  16.495  13.113  1.00  0.00     0.189 HD
ENDBRANCH   5  21
ENDBRANCH   1   2
BRANCH   1  27
ATOM     27  C   UNL     1      14.067  23.668  17.218  1.00  0.00     0.232 C 
BRANCH  27  28
ATOM     28  C   UNL     1      14.997  23.803  17.560  1.00  0.00     0.020 C 
ATOM     29  C   UNL     1      15.577  24.514  17.164  1.00  0.00     0.011 C 
ATOM     30  C   UNL     1      15.347  23.225  18.297  1.00  0.00     0.011 C 
ENDBRANCH  27  28
ENDBRANCH   1  27
TORSDOF 4
ENDMDL
