MODEL 1
REMARK VINA RESULT:     0.000      0.000      0.000
REMARK INTER + INTRA:           3.088
REMARK INTER:                   0.000
REMARK INTRA:                   3.088
REMARK UNBOUND:                 3.088
REMARK SMILES [H]/N=C(\N)c1cc2c(cc1F)N/C(=C1/C=CC=C(OCC(C)C)C1=O)N2
REMARK SMILES IDX 19 1 18 2 10 3 9 4 5 5 8 6 6 7 12 8 7 9 13 10 26 11 14 12
REMARK SMILES IDX 24 13 15 14 25 15 16 16 17 17 11 18 3 21 4 22 2 23 1 26
REMARK SMILES IDX 20 27 21 28 22 29 23 30
REMARK H PARENT 12 19 26 20 4 24 4 25
ROOT
ATOM      1  O   UNL     1      13.451  14.425  10.151  1.00  0.00    -0.489 OA
ENDROOT
BRANCH   1   2
ATOM      2  C   UNL     1      14.214  14.494  10.794  1.00  0.00     0.167 C 
ATOM      3  C   UNL     1      13.548  14.979  16.508  1.00  0.00     0.136 A 
ATOM      4  C   UNL     1      13.210  14.892  15.571  1.00  0.00     0.068 A 
ATOM      5  C   UNL     1      14.532  15.012  16.684  1.00  0.00     0.054 A 
ATOM      6  C   UNL     1      13.856  14.837  14.810  1.00  0.00     0.066 A 
ATOM      7  C   UNL     1      15.178  14.958  15.923  1.00  0.00     0.043 A 
ATOM      8  N   UNL     1      13.725  14.749  13.829  1.00  0.00    -0.339 N 
ATOM      9  C   UNL     1      14.840  14.870  14.986  1.00  0.00     0.064 A 
ATOM     10  C   UNL     1      14.621  14.728  13.397  1.00  0.00     0.119 C 
ATOM     11  N   UNL     1      15.309  14.802  14.112  1.00  0.00    -0.339 N 
ATOM     12  C   UNL     1      14.799  14.646  12.417  1.00  0.00     0.067 C 
ATOM     13  C   UNL     1      14.036  14.576  11.774  1.00  0.00     0.231 C 
ATOM     14  C   UNL     1      15.740  14.633  12.079  1.00  0.00     0.016 C 
ATOM     15  O   UNL     1      13.095  14.589  12.112  1.00  0.00    -0.285 OA
ATOM     16  C   UNL     1      15.918  14.551  11.098  1.00  0.00     0.005 C 
ATOM     17  C   UNL     1      15.155  14.482  10.456  1.00  0.00     0.051 C 
ATOM     18  F   UNL     1      12.902  15.034  17.270  1.00  0.00    -0.206 F 
ATOM     19  H   UNL     1      13.180  14.714  13.536  1.00  0.00     0.168 HD
ATOM     20  H   UNL     1      15.923  14.806  14.026  1.00  0.00     0.168 HD
BRANCH   5  21
ATOM     21  C   UNL     1      14.870  15.100  17.621  1.00  0.00     0.125 C 
ATOM     22  N   UNL     1      15.054  14.281  18.165  1.00  0.00    -0.384 N 
ATOM     23  N   UNL     1      15.023  16.006  18.015  1.00  0.00    -0.284 NA
ATOM     24  H   UNL     1      15.264  14.335  18.746  1.00  0.00     0.158 HD
ATOM     25  H   UNL     1      14.959  13.719  17.921  1.00  0.00     0.158 HD
ATOM     26  H   UNL     1      15.233  16.061  18.596  1.00  0.00     0.189 HD
ENDBRANCH   5  21
ENDBRANCH   1   2
BRANCH   1  27
ATOM     27  C   UNL     1      13.559  14.744   9.210  1.00  0.00     0.232 C 
BRANCH  27  28
ATOM     28  C   UNL     1      12.765  14.794   8.604  1.00  0.00     0.020 C 
ATOM     29  C   UNL     1      12.473  13.984   8.095  1.00  0.00     0.011 C 
ATOM     30  C   UNL     1      12.262  15.653   8.508  1.00  0.00     0.011 C 
ENDBRANCH  27  28
ENDBRANCH   1  27
TORSDOF 4
ENDMDL
MODEL 2
REMARK VINA RESULT:     0.001      9.207     10.356
REMARK INTER + INTRA:           3.089
REMARK INTER:                   0.000
REMARK INTRA:                   3.089
REMARK UNBOUND:                 3.088
REMARK SMILES [H]/N=C(\N)c1cc2c(cc1F)N/C(=C1/C=CC=C(OCC(C)C)C1=O)N2
REMARK SMILES IDX 19 1 18 2 10 3 9 4 5 5 8 6 6 7 12 8 7 9 13 10 26 11 14 12
REMARK SMILES IDX 24 13 15 14 25 15 16 16 17 17 11 18 3 21 4 22 2 23 1 26
REMARK SMILES IDX 20 27 21 28 22 29 23 30
REMARK H PARENT 12 19 26 20 4 24 4 25
ROOT
ATOM      1  O   UNL     1       9.858  23.783  16.049  1.00  0.00    -0.489 OA
ENDROOT
BRANCH   1   2
ATOM      2  C   UNL     1      10.399  23.340  15.335  1.00  0.00     0.167 C 
ATOM      3  C   UNL     1      16.030  24.319  14.519  1.00  0.00     0.136 A 
ATOM      4  C   UNL     1      15.156  24.454  14.985  1.00  0.00     0.068 A 
ATOM      5  C   UNL     1      16.094  23.685  13.748  1.00  0.00     0.054 A 
ATOM      6  C   UNL     1      14.345  23.955  14.680  1.00  0.00     0.066 A 
ATOM      7  C   UNL     1      15.283  23.186  13.443  1.00  0.00     0.043 A 
ATOM      8  N   UNL     1      13.405  23.949  15.002  1.00  0.00    -0.339 N 
ATOM      9  C   UNL     1      14.408  23.321  13.909  1.00  0.00     0.064 A 
ATOM     10  C   UNL     1      12.888  23.316  14.436  1.00  0.00     0.119 C 
ATOM     11  N   UNL     1      13.507  22.929  13.761  1.00  0.00    -0.339 N 
ATOM     12  C   UNL     1      11.914  23.106  14.528  1.00  0.00     0.067 C 
ATOM     13  C   UNL     1      11.373  23.550  15.242  1.00  0.00     0.231 C 
ATOM     14  C   UNL     1      11.483  22.452  13.907  1.00  0.00     0.016 C 
ATOM     15  O   UNL     1      11.804  24.204  15.863  1.00  0.00    -0.285 OA
ATOM     16  C   UNL     1      10.510  22.242  14.000  1.00  0.00     0.005 C 
ATOM     17  C   UNL     1       9.968  22.685  14.714  1.00  0.00     0.051 C 
ATOM     18  F   UNL     1      16.841  24.818  14.824  1.00  0.00    -0.206 F 
ATOM     19  H   UNL     1      13.179  24.282  15.474  1.00  0.00     0.168 HD
ATOM     20  H   UNL     1      13.357  22.515  13.325  1.00  0.00     0.168 HD
BRANCH   5  21
ATOM     21  C   UNL     1      16.969  23.550  13.283  1.00  0.00     0.125 C 
ATOM     22  N   UNL     1      17.597  22.838  13.596  1.00  0.00    -0.384 N 
ATOM     23  N   UNL     1      17.215  24.127  12.504  1.00  0.00    -0.284 NA
ATOM     24  H   UNL     1      18.140  22.755  13.307  1.00  0.00     0.158 HD
ATOM     25  H   UNL     1      17.445  22.480  14.079  1.00  0.00     0.158 HD
ATOM     26  H   UNL     1      17.757  24.044  12.215  1.00  0.00     0.189 HD
ENDBRANCH   5  21
ENDBRANCH   1   2
BRANCH   1  27
ATOM     27  C   UNL     1       9.051  23.325  16.422  1.00  0.00     0.232 C 
BRANCH  27  28
ATOM     28  C   UNL     1       8.585  23.705  17.221  1.00  0.00     0.020 C 
ATOM     29  C   UNL     1       7.895  24.419  17.105  1.00  0.00     0.011 C 
ATOM     30  C   UNL     1       8.810  23.371  18.137  1.00  0.00     0.011 C 
ENDBRANCH  27  28
ENDBRANCH   1  27
TORSDOF 4
ENDMDL
MODEL 3
REMARK VINA RESULT:     0.007      9.553     11.662
REMARK INTER + INTRA:           3.097
REMARK INTER:                   0.000
REMARK INTRA:                   3.097
REMARK UNBOUND:                 3.088
REMARK SMILES [H]/N=C(\N)c1cc2c(cc1F)N/C(=C1/C=CC=C(OCC(C)C)C1=O)N2
REMARK SMILES IDX 19 1 18 2 10 3 9 4 5 5 8 6 6 7 12 8 7 9 13 10 26 11 14 12
REMARK SMILES IDX 24 13 15 14 25 15 16 16 17 17 11 18 3 21 4 22 2 23 1 26
REMARK SMILES IDX 20 27 21 28 22 29 23 30
REMARK H PARENT 12 19 26 20 4 24 4 25
ROOT
ATOM      1  O   UNL     1      18.552  15.251   4.005  1.00  0.00    -0.489 OA
ENDROOT
BRANCH   1   2
ATOM      2  C   UNL     1      18.039  15.924   4.538  1.00  0.00     0.167 C 
ATOM      3  C   UNL     1      16.115  20.920   2.375  1.00  0.00     0.136 A 
ATOM      4  C   UNL     1      16.589  20.041   2.316  1.00  0.00     0.068 A 
ATOM      5  C   UNL     1      15.700  21.207   3.238  1.00  0.00     0.054 A 
ATOM      6  C   UNL     1      16.648  19.450   3.120  1.00  0.00     0.066 A 
ATOM      7  C   UNL     1      15.759  20.616   4.042  1.00  0.00     0.043 A 
ATOM      8  N   UNL     1      17.065  18.559   3.264  1.00  0.00    -0.339 N 
ATOM      9  C   UNL     1      16.233  19.737   3.983  1.00  0.00     0.064 A 
ATOM     10  C   UNL     1      16.911  18.295   4.210  1.00  0.00     0.119 C 
ATOM     11  N   UNL     1      16.397  19.022   4.654  1.00  0.00    -0.339 N 
ATOM     12  C   UNL     1      17.218  17.446   4.640  1.00  0.00     0.067 C 
ATOM     13  C   UNL     1      17.731  16.773   4.108  1.00  0.00     0.231 C 
ATOM     14  C   UNL     1      17.013  17.271   5.603  1.00  0.00     0.016 C 
ATOM     15  O   UNL     1      17.937  16.949   3.145  1.00  0.00    -0.285 OA
ATOM     16  C   UNL     1      17.320  16.422   6.033  1.00  0.00     0.005 C 
ATOM     17  C   UNL     1      17.833  15.749   5.501  1.00  0.00     0.051 C 
ATOM     18  F   UNL     1      16.056  21.511   1.570  1.00  0.00    -0.206 F 
ATOM     19  H   UNL     1      17.369  18.226   2.838  1.00  0.00     0.168 HD
ATOM     20  H   UNL     1      16.212  19.028   5.245  1.00  0.00     0.168 HD
BRANCH   5  21
ATOM     21  C   UNL     1      15.227  22.086   3.297  1.00  0.00     0.125 C 
ATOM     22  N   UNL     1      15.731  22.910   3.555  1.00  0.00    -0.384 N 
ATOM     23  N   UNL     1      14.248  22.141   3.098  1.00  0.00    -0.284 NA
ATOM     24  H   UNL     1      15.438  23.455   3.592  1.00  0.00     0.158 HD
ATOM     25  H   UNL     1      16.338  22.876   3.678  1.00  0.00     0.158 HD
ATOM     26  H   UNL     1      13.954  22.686   3.135  1.00  0.00     0.189 HD
ENDBRANCH   5  21
ENDBRANCH   1   2
BRANCH   1  27
ATOM     27  C   UNL     1      19.194  14.637   4.463  1.00  0.00     0.232 C 
BRANCH  27  28
ATOM     28  C   UNL     1      19.799  14.052   3.921  1.00  0.00     0.020 C 
ATOM     29  C   UNL     1      19.476  13.164   3.596  1.00  0.00     0.011 C 
ATOM     30  C   UNL     1      20.727  14.357   3.705  1.00  0.00     0.011 C 
ENDBRANCH  27  28
ENDBRANCH   1  27
TORSDOF 4
ENDMDL
MODEL 4
REMARK VINA RESULT:     0.007      7.236      8.718
REMARK INTER + INTRA:           3.097
REMARK INTER:                   0.000
REMARK INTRA:                   3.097
REMARK UNBOUND:                 3.088
REMARK SMILES [H]/N=C(\N)c1cc2c(cc1F)N/C(=C1/C=CC=C(OCC(C)C)C1=O)N2
REMARK SMILES IDX 19 1 18 2 10 3 9 4 5 5 8 6 6 7 12 8 7 9 13 10 26 11 14 12
REMARK SMILES IDX 24 13 15 14 25 15 16 16 17 17 11 18 3 21 4 22 2 23 1 26
REMARK SMILES IDX 20 27 21 28 22 29 23 30
REMARK H PARENT 12 19 26 20 4 24 4 25
ROOT
ATOM      1  O   UNL     1       5.500  18.503   8.405  1.00  0.00    -0.489 OA
ENDROOT
BRANCH   1   2
ATOM      2  C   UNL     1       5.200  18.260   9.328  1.00  0.00     0.167 C 
ATOM      3  C   UNL     1       8.825  17.017  13.646  1.00  0.00     0.136 A 
ATOM      4  C   UNL     1       8.608  17.276  12.705  1.00  0.00     0.068 A 
ATOM      5  C   UNL     1       8.089  16.854  14.302  1.00  0.00     0.054 A 
ATOM      6  C   UNL     1       7.654  17.373  12.420  1.00  0.00     0.066 A 
ATOM      7  C   UNL     1       7.135  16.951  14.018  1.00  0.00     0.043 A 
ATOM      8  N   UNL     1       7.240  17.616  11.551  1.00  0.00    -0.339 N 
ATOM      9  C   UNL     1       6.918  17.210  13.077  1.00  0.00     0.064 A 
ATOM     10  C   UNL     1       6.252  17.606  11.666  1.00  0.00     0.119 C 
ATOM     11  N   UNL     1       6.054  17.355  12.607  1.00  0.00    -0.339 N 
ATOM     12  C   UNL     1       5.576  17.811  10.958  1.00  0.00     0.067 C 
ATOM     13  C   UNL     1       5.876  18.054  10.036  1.00  0.00     0.231 C 
ATOM     14  C   UNL     1       4.600  17.773  11.173  1.00  0.00     0.016 C 
ATOM     15  O   UNL     1       6.852  18.092   9.821  1.00  0.00    -0.285 OA
ATOM     16  C   UNL     1       3.924  17.978  10.465  1.00  0.00     0.005 C 
ATOM     17  C   UNL     1       4.224  18.222   9.542  1.00  0.00     0.051 C 
ATOM     18  F   UNL     1       9.779  16.920  13.931  1.00  0.00    -0.206 F 
ATOM     19  H   UNL     1       7.543  17.752  11.027  1.00  0.00     0.168 HD
ATOM     20  H   UNL     1       5.489  17.299  12.857  1.00  0.00     0.168 HD
BRANCH   5  21
ATOM     21  C   UNL     1       8.306  16.595  15.244  1.00  0.00     0.125 C 
ATOM     22  N   UNL     1       8.431  17.301  15.940  1.00  0.00    -0.384 N 
ATOM     23  N   UNL     1       8.397  15.630  15.488  1.00  0.00    -0.284 NA
ATOM     24  H   UNL     1       8.566  17.141  16.524  1.00  0.00     0.158 HD
ATOM     25  H   UNL     1       8.375  17.900  15.789  1.00  0.00     0.158 HD
ATOM     26  H   UNL     1       8.531  15.469  16.071  1.00  0.00     0.189 HD
ENDBRANCH   5  21
ENDBRANCH   1   2
BRANCH   1  27
ATOM     27  C   UNL     1       4.925  19.084   7.830  1.00  0.00     0.232 C 
BRANCH  27  28
ATOM     28  C   UNL     1       5.276  19.432   6.960  1.00  0.00     0.020 C 
ATOM     29  C   UNL     1       5.695  20.339   6.917  1.00  0.00     0.011 C 
ATOM     30  C   UNL     1       5.210  18.872   6.134  1.00  0.00     0.011 C 
ENDBRANCH  27  28
ENDBRANCH   1  27
TORSDOF 4
ENDMDL
MODEL 5
REMARK VINA RESULT:     0.007      5.965      6.941
REMARK INTER + INTRA:           3.097
REMARK INTER:                   0.000
REMARK INTRA:                   3.097
REMARK UNBOUND:                 3.088
REMARK SMILES [H]/N=C(\N)c1cc2c(cc1F)N/C(=C1/C=CC=C(OCC(C)C)C1=O)N2
REMARK SMILES IDX 19 1 18 2 10 3 9 4 5 5 8 6 6 7 12 8 7 9 13 10 26 11 14 12
REMARK SMILES IDX 24 13 15 14 25 15 16 16 17 17 11 18 3 21 4 22 2 23 1 26
REMARK SMILES IDX 20 27 21 28 22 29 23 30
REMARK H PARENT 12 19 26 20 4 24 4 25
ROOT
ATOM      1  O   UNL     1      19.059  20.302  13.701  1.00  0.00    -0.489 OA
ENDROOT
BRANCH   1   2
ATOM      2  C   UNL     1      18.311  19.641  13.757  1.00  0.00     0.167 C 
ATOM      3  C   UNL     1      13.225  20.773  16.245  1.00  0.00     0.136 A 
ATOM      4  C   UNL     1      14.153  21.008  15.956  1.00  0.00     0.068 A 
ATOM      5  C   UNL     1      12.857  19.863  16.054  1.00  0.00     0.054 A 
ATOM      6  C   UNL     1      14.713  20.332  15.476  1.00  0.00     0.066 A 
ATOM      7  C   UNL     1      13.417  19.187  15.574  1.00  0.00     0.043 A 
ATOM      8  N   UNL     1      15.638  20.370  15.115  1.00  0.00    -0.339 N 
ATOM      9  C   UNL     1      14.346  19.422  15.285  1.00  0.00     0.064 A 
ATOM     10  C   UNL     1      15.844  19.489  14.702  1.00  0.00     0.119 C 
ATOM     11  N   UNL     1      15.046  18.904  14.807  1.00  0.00    -0.339 N 
ATOM     12  C   UNL     1      16.703  19.234  14.258  1.00  0.00     0.067 C 
ATOM     13  C   UNL     1      17.452  19.896  14.201  1.00  0.00     0.231 C 
ATOM     14  C   UNL     1      16.815  18.319  13.870  1.00  0.00     0.016 C 
ATOM     15  O   UNL     1      17.341  20.811  14.589  1.00  0.00    -0.285 OA
ATOM     16  C   UNL     1      17.674  18.065  13.427  1.00  0.00     0.005 C 
ATOM     17  C   UNL     1      18.422  18.726  13.370  1.00  0.00     0.051 C 
ATOM     18  F   UNL     1      12.665  21.448  16.725  1.00  0.00    -0.206 F 
ATOM     19  H   UNL     1      16.021  20.857  15.141  1.00  0.00     0.168 HD
ATOM     20  H   UNL     1      14.995  18.319  14.609  1.00  0.00     0.168 HD
BRANCH   5  21
ATOM     21  C   UNL     1      11.929  19.628  16.343  1.00  0.00     0.125 C 
ATOM     22  N   UNL     1      11.157  19.794  15.729  1.00  0.00    -0.384 N 
ATOM     23  N   UNL     1      11.773  19.227  17.246  1.00  0.00    -0.284 NA
ATOM     24  H   UNL     1      10.582  19.648  15.908  1.00  0.00     0.158 HD
ATOM     25  H   UNL     1      11.254  20.042  15.169  1.00  0.00     0.158 HD
ATOM     26  H   UNL     1      11.197  19.081  17.425  1.00  0.00     0.189 HD
ENDBRANCH   5  21
ENDBRANCH   1   2
BRANCH   1  27
ATOM     27  C   UNL     1      19.722  20.245  12.954  1.00  0.00     0.232 C 
BRANCH  27  28
ATOM     28  C   UNL     1      20.393  20.975  12.824  1.00  0.00     0.020 C 
ATOM     29  C   UNL     1      21.252  20.962  13.335  1.00  0.00     0.011 C 
ATOM     30  C   UNL     1      20.204  21.718  12.182  1.00  0.00     0.011 C 
ENDBRANCH  27  28
ENDBRANCH   1  27
TORSDOF 4
ENDMDL
MODEL 6
REMARK VINA RESULT:     0.008      4.992      6.245
REMARK INTER + INTRA:           3.097
REMARK INTER:                   0.000
REMARK INTRA:                   3.097
REMARK UNBOUND:                 3.088
REMARK SMILES [H]/N=C(\N)c1cc2c(cc1F)N/C(=C1/C=CC=C(OCC(C)C)C1=O)N2
REMARK SMILES IDX 19 1 18 2 10 3 9 4 5 5 8 6 6 7 12 8 7 9 13 10 26 11 14 12
REMARK SMILES IDX 24 13 15 14 25 15 16 16 17 17 11 18 3 21 4 22 2 23 1 26
REMARK SMILES IDX 20 27 21 28 22 29 23 30
REMARK H PARENT 12 19 26 20 4 24 4 25
ROOT
ATOM      1  O   UNL     1      11.384  11.727  14.475  1.00  0.00    -0.489 OA
ENDROOT
BRANCH   1   2
ATOM      2  C   UNL     1      11.610  12.191  15.332  1.00  0.00     0.167 C 
ATOM      3  C   UNL     1       7.649  14.212  19.015  1.00  0.00     0.136 A 
ATOM      4  C   UNL     1       7.941  13.754  18.175  1.00  0.00     0.068 A 
ATOM      5  C   UNL     1       8.332  14.557  19.658  1.00  0.00     0.054 A 
ATOM      6  C   UNL     1       8.915  13.642  17.978  1.00  0.00     0.066 A 
ATOM      7  C   UNL     1       9.306  14.445  19.462  1.00  0.00     0.043 A 
ATOM      8  N   UNL     1       9.398  13.226  17.216  1.00  0.00    -0.339 N 
ATOM      9  C   UNL     1       9.598  13.988  18.622  1.00  0.00     0.064 A 
ATOM     10  C   UNL     1      10.374  13.312  17.385  1.00  0.00     0.119 C 
ATOM     11  N   UNL     1      10.497  13.782  18.253  1.00  0.00    -0.339 N 
ATOM     12  C   UNL     1      11.105  12.983  16.787  1.00  0.00     0.067 C 
ATOM     13  C   UNL     1      10.879  12.520  15.930  1.00  0.00     0.231 C 
ATOM     14  C   UNL     1      12.062  13.118  17.045  1.00  0.00     0.016 C 
ATOM     15  O   UNL     1       9.923  12.385  15.672  1.00  0.00    -0.285 OA
ATOM     16  C   UNL     1      12.793  12.790  16.447  1.00  0.00     0.005 C 
ATOM     17  C   UNL     1      12.567  12.326  15.590  1.00  0.00     0.051 C 
ATOM     18  F   UNL     1       6.675  14.323  19.211  1.00  0.00    -0.206 F 
ATOM     19  H   UNL     1       9.137  12.959  16.721  1.00  0.00     0.168 HD
ATOM     20  H   UNL     1      11.040  13.923  18.516  1.00  0.00     0.168 HD
BRANCH   5  21
ATOM     21  C   UNL     1       8.041  15.015  20.498  1.00  0.00     0.125 C 
ATOM     22  N   UNL     1       7.891  14.482  21.332  1.00  0.00    -0.384 N 
ATOM     23  N   UNL     1       7.899  16.005  20.505  1.00  0.00    -0.284 NA
ATOM     24  H   UNL     1       7.710  14.766  21.852  1.00  0.00     0.158 HD
ATOM     25  H   UNL     1       7.978  13.869  21.327  1.00  0.00     0.158 HD
ATOM     26  H   UNL     1       7.718  16.288  21.026  1.00  0.00     0.189 HD
ENDBRANCH   5  21
ENDBRANCH   1   2
BRANCH   1  27
ATOM     27  C   UNL     1      12.023  11.759  13.706  1.00  0.00     0.232 C 
BRANCH  27  28
ATOM     28  C   UNL     1      11.747  11.405  12.812  1.00  0.00     0.020 C 
ATOM     29  C   UNL     1      11.849  10.432  12.607  1.00  0.00     0.011 C 
ATOM     30  C   UNL     1      11.369  12.025  12.124  1.00  0.00     0.011 C 
ENDBRANCH  27  28
ENDBRANCH   1  27
TORSDOF 4
ENDMDL
MODEL 7
REMARK VINA RESULT:     0.008      6.500      7.731
REMARK INTER + INTRA:           3.098
REMARK INTER:                   0.000
REMARK INTRA:                   3.098
REMARK UNBOUND:                 3.088
REMARK SMILES [H]/N=C(\N)c1cc2c(cc1F)N/C(=C1/C=CC=C(OCC(C)C)C1=O)N2
REMARK SMILES IDX 19 1 18 2 10 3 9 4 5 5 8 6 6 7 12 8 7 9 13 10 26 11 14 12
REMARK SMILES IDX 24 13 15 14 25 15 16 16 17 17 11 18 3 21 4 22 2 23 1 26
REMARK SMILES IDX 20 27 21 28 22 29 23 30
REMARK H PARENT 12 19 26 20 4 24 4 25
ROOT
ATOM      1  O   UNL     1      19.784  13.702  13.531  1.00  0.00    -0.489 OA
ENDROOT
BRANCH   1   2
ATOM      2  C   UNL     1      19.249  13.382  14.313  1.00  0.00     0.167 C 
ATOM      3  C   UNL     1      20.215   8.375  17.020  1.00  0.00     0.136 A 
ATOM      4  C   UNL     1      20.400   9.066  16.321  1.00  0.00     0.068 A 
ATOM      5  C   UNL     1      19.473   8.514  17.676  1.00  0.00     0.054 A 
ATOM      6  C   UNL     1      19.843   9.896  16.279  1.00  0.00     0.066 A 
ATOM      7  C   UNL     1      18.916   9.343  17.633  1.00  0.00     0.043 A 
ATOM      8  N   UNL     1      19.866  10.684  15.673  1.00  0.00    -0.339 N 
ATOM      9  C   UNL     1      19.101  10.034  16.934  1.00  0.00     0.064 A 
ATOM     10  C   UNL     1      19.143  11.308  15.951  1.00  0.00     0.119 C 
ATOM     11  N   UNL     1      18.671  10.906  16.729  1.00  0.00    -0.339 N 
ATOM     12  C   UNL     1      18.929  12.185  15.523  1.00  0.00     0.067 C 
ATOM     13  C   UNL     1      19.464  12.505  14.741  1.00  0.00     0.231 C 
ATOM     14  C   UNL     1      18.178  12.744  15.877  1.00  0.00     0.016 C 
ATOM     15  O   UNL     1      20.214  11.946  14.387  1.00  0.00    -0.285 OA
ATOM     16  C   UNL     1      17.964  13.622  15.449  1.00  0.00     0.005 C 
ATOM     17  C   UNL     1      18.499  13.941  14.667  1.00  0.00     0.051 C 
ATOM     18  F   UNL     1      20.772   7.546  17.063  1.00  0.00    -0.206 F 
ATOM     19  H   UNL     1      20.262  10.772  15.205  1.00  0.00     0.168 HD
ATOM     20  H   UNL     1      18.193  11.157  17.033  1.00  0.00     0.168 HD
BRANCH   5  21
ATOM     21  C   UNL     1      19.288   7.822  18.375  1.00  0.00     0.125 C 
ATOM     22  N   UNL     1      19.745   7.874  19.262  1.00  0.00    -0.384 N 
ATOM     23  N   UNL     1      18.646   7.080  18.186  1.00  0.00    -0.284 NA
ATOM     24  H   UNL     1      19.631   7.446  19.696  1.00  0.00     0.158 HD
ATOM     25  H   UNL     1      20.144   8.335  19.380  1.00  0.00     0.158 HD
ATOM     26  H   UNL     1      18.531   6.651  18.619  1.00  0.00     0.189 HD
ENDBRANCH   5  21
ENDBRANCH   1   2
BRANCH   1  27
ATOM     27  C   UNL     1      19.877  14.682  13.355  1.00  0.00     0.232 C 
BRANCH  27  28
ATOM     28  C   UNL     1      20.514  15.006  12.655  1.00  0.00     0.020 C 
ATOM     29  C   UNL     1      20.225  15.051  11.699  1.00  0.00     0.011 C 
ATOM     30  C   UNL     1      21.439  15.286  12.912  1.00  0.00     0.011 C 
ENDBRANCH  27  28
ENDBRANCH   1  27
TORSDOF 4
ENDMDL
MODEL 8
REMARK VINA RESULT:     0.012      5.196      7.700
REMARK INTER + INTRA:           3.103
REMARK INTER:                   0.000
REMARK INTRA:                   3.103
REMARK UNBOUND:                 3.088
REMARK SMILES [H]/N=C(\N)c1cc2c(cc1F)N/C(=C1/C=CC=C(OCC(C)C)C1=O)N2
REMARK SMILES IDX 19 1 18 2 10 3 9 4 5 5 8 6 6 7 12 8 7 9 13 10 26 11 14 12
REMARK SMILES IDX 24 13 15 14 25 15 16 16 17 17 11 18 3 21 4 22 2 23 1 26
REMARK SMILES IDX 20 27 21 28 22 29 23 30
REMARK H PARENT 12 19 26 20 4 24 4 25
ROOT
ATOM      1  O   UNL     1      17.868  17.570  17.116  1.00  0.00    -0.489 OA
ENDROOT
BRANCH   1   2
ATOM      2  C   UNL     1      16.949  17.914  16.924  1.00  0.00     0.167 C 
ATOM      3  C   UNL     1      15.178  19.546  11.676  1.00  0.00     0.136 A 
ATOM      4  C   UNL     1      15.853  19.193  12.325  1.00  0.00     0.068 A 
ATOM      5  C   UNL     1      14.261  19.788  11.992  1.00  0.00     0.054 A 
ATOM      6  C   UNL     1      15.610  19.082  13.288  1.00  0.00     0.066 A 
ATOM      7  C   UNL     1      14.018  19.677  12.955  1.00  0.00     0.043 A 
ATOM      8  N   UNL     1      16.125  18.755  14.073  1.00  0.00    -0.339 N 
ATOM      9  C   UNL     1      14.692  19.324  13.604  1.00  0.00     0.064 A 
ATOM     10  C   UNL     1      15.532  18.793  14.870  1.00  0.00     0.119 C 
ATOM     11  N   UNL     1      14.648  19.144  14.580  1.00  0.00    -0.339 N 
ATOM     12  C   UNL     1      15.781  18.525  15.801  1.00  0.00     0.067 C 
ATOM     13  C   UNL     1      16.700  18.182  15.993  1.00  0.00     0.231 C 
ATOM     14  C   UNL     1      15.111  18.601  16.539  1.00  0.00     0.016 C 
ATOM     15  O   UNL     1      17.370  18.106  15.255  1.00  0.00    -0.285 OA
ATOM     16  C   UNL     1      15.359  18.333  17.470  1.00  0.00     0.005 C 
ATOM     17  C   UNL     1      16.279  17.989  17.662  1.00  0.00     0.051 C 
ATOM     18  F   UNL     1      15.422  19.657  10.713  1.00  0.00    -0.206 F 
ATOM     19  H   UNL     1      16.714  18.560  14.067  1.00  0.00     0.168 HD
ATOM     20  H   UNL     1      14.155  19.235  14.945  1.00  0.00     0.168 HD
BRANCH   5  21
ATOM     21  C   UNL     1      13.586  20.141  11.343  1.00  0.00     0.125 C 
ATOM     22  N   UNL     1      12.981  19.510  10.858  1.00  0.00    -0.384 N 
ATOM     23  N   UNL     1      13.517  21.125  11.180  1.00  0.00    -0.284 NA
ATOM     24  H   UNL     1      12.563  19.729  10.456  1.00  0.00     0.158 HD
ATOM     25  H   UNL     1      13.024  18.900  10.960  1.00  0.00     0.158 HD
ATOM     26  H   UNL     1      13.099  21.344  10.778  1.00  0.00     0.189 HD
ENDBRANCH   5  21
ENDBRANCH   1   2
BRANCH   1  27
ATOM     27  C   UNL     1      18.018  16.943  17.881  1.00  0.00     0.232 C 
BRANCH  27  28
ATOM     28  C   UNL     1      18.907  16.501  17.998  1.00  0.00     0.020 C 
ATOM     29  C   UNL     1      19.065  15.588  17.621  1.00  0.00     0.011 C 
ATOM     30  C   UNL     1      19.638  16.971  18.492  1.00  0.00     0.011 C 
ENDBRANCH  27  28
ENDBRANCH   1  27
TORSDOF 4
ENDMDL
MODEL 9
REMARK VINA RESULT:     0.012      6.850      8.561
REMARK INTER + INTRA:           3.103
REMARK INTER:                   0.000
REMARK INTRA:                   3.103
REMARK UNBOUND:                 3.088
REMARK SMILES [H]/N=C(\N)c1cc2c(cc1F)N/C(=C1/C=CC=C(OCC(C)C)C1=O)N2
REMARK SMILES IDX 19 1 18 2 10 3 9 4 5 5 8 6 6 7 12 8 7 9 13 10 26 11 14 12
REMARK SMILES IDX 24 13 15 14 25 15 16 16 17 17 11 18 3 21 4 22 2 23 1 26
REMARK SMILES IDX 20 27 21 28 22 29 23 30
REMARK H PARENT 12 19 26 20 4 24 4 25
ROOT
ATOM      1  O   UNL     1      20.129  13.165  15.006  1.00  0.00    -0.489 OA
ENDROOT
BRANCH   1   2
ATOM      2  C   UNL     1      19.687  13.273  15.897  1.00  0.00     0.167 C 
ATOM      3  C   UNL     1      22.466  12.732  20.929  1.00  0.00     0.136 A 
ATOM      4  C   UNL     1      22.413  12.731  19.931  1.00  0.00     0.068 A 
ATOM      5  C   UNL     1      21.648  12.917  21.474  1.00  0.00     0.054 A 
ATOM      6  C   UNL     1      21.541  12.915  19.476  1.00  0.00     0.066 A 
ATOM      7  C   UNL     1      20.777  13.101  21.019  1.00  0.00     0.043 A 
ATOM      8  N   UNL     1      21.285  12.958  18.517  1.00  0.00    -0.339 N 
ATOM      9  C   UNL     1      20.723  13.100  20.021  1.00  0.00     0.064 A 
ATOM     10  C   UNL     1      20.315  13.169  18.465  1.00  0.00     0.119 C 
ATOM     11  N   UNL     1      19.968  13.256  19.394  1.00  0.00    -0.339 N 
ATOM     12  C   UNL     1      19.780  13.274  17.627  1.00  0.00     0.067 C 
ATOM     13  C   UNL     1      20.222  13.167  16.736  1.00  0.00     0.231 C 
ATOM     14  C   UNL     1      18.805  13.487  17.679  1.00  0.00     0.016 C 
ATOM     15  O   UNL     1      21.197  12.954  16.684  1.00  0.00    -0.285 OA
ATOM     16  C   UNL     1      18.270  13.593  16.840  1.00  0.00     0.005 C 
ATOM     17  C   UNL     1      18.712  13.486  15.949  1.00  0.00     0.051 C 
ATOM     18  F   UNL     1      23.338  12.548  21.383  1.00  0.00    -0.206 F 
ATOM     19  H   UNL     1      21.664  12.870  18.034  1.00  0.00     0.168 HD
ATOM     20  H   UNL     1      19.383  13.386  19.552  1.00  0.00     0.168 HD
BRANCH   5  21
ATOM     21  C   UNL     1      21.702  12.918  22.472  1.00  0.00     0.125 C 
ATOM     22  N   UNL     1      21.545  12.073  22.982  1.00  0.00    -0.384 N 
ATOM     23  N   UNL     1      21.913  13.765  22.960  1.00  0.00    -0.284 NA
ATOM     24  H   UNL     1      21.578  12.073  23.601  1.00  0.00     0.158 HD
ATOM     25  H   UNL     1      21.414  11.548  22.679  1.00  0.00     0.158 HD
ATOM     26  H   UNL     1      21.946  13.766  23.580  1.00  0.00     0.189 HD
ENDBRANCH   5  21
ENDBRANCH   1   2
BRANCH   1  27
ATOM     27  C   UNL     1      19.763  13.641  14.207  1.00  0.00     0.232 C 
BRANCH  27  28
ATOM     28  C   UNL     1      20.273  13.638  13.346  1.00  0.00     0.020 C 
ATOM     29  C   UNL     1      20.167  12.878  12.705  1.00  0.00     0.011 C 
ATOM     30  C   UNL     1      20.889  14.395  13.128  1.00  0.00     0.011 C 
ENDBRANCH  27  28
ENDBRANCH   1  27
TORSDOF 4
ENDMDL
