MODEL 1
REMARK VINA RESULT:     0.000      0.000      0.000
REMARK INTER + INTRA:           3.080
REMARK INTER:                   0.000
REMARK INTRA:                   3.080
REMARK UNBOUND:                 3.080
REMARK SMILES [H]/N=C(\N)c1cc2c(cc1F)N/C(=C1/C=CC=C(OCC(C)C)C1=O)N2
REMARK SMILES IDX 19 1 18 2 10 3 9 4 5 5 8 6 6 7 12 8 7 9 13 10 26 11 14 12
REMARK SMILES IDX 24 13 15 14 25 15 16 16 17 17 11 18 3 21 4 22 2 23 1 26
REMARK SMILES IDX 20 27 21 28 22 29 23 30
REMARK H PARENT 12 19 26 20 4 24 4 25
ROOT
ATOM      1  O   UNL     1      10.674  13.429  17.217  1.00  0.00    -0.489 OA
ENDROOT
BRANCH   1   2
ATOM      2  C   UNL     1      10.966  14.304  17.604  1.00  0.00     0.167 C 
ATOM      3  C   UNL     1      10.551  19.336  14.804  1.00  0.00     0.136 A 
ATOM      4  C   UNL     1      10.439  18.346  14.889  1.00  0.00     0.068 A 
ATOM      5  C   UNL     1      10.944  19.861  15.558  1.00  0.00     0.054 A 
ATOM      6  C   UNL     1      10.719  17.881  15.728  1.00  0.00     0.066 A 
ATOM      7  C   UNL     1      11.225  19.396  16.398  1.00  0.00     0.043 A 
ATOM      8  N   UNL     1      10.691  16.926  16.003  1.00  0.00    -0.339 N 
ATOM      9  C   UNL     1      11.112  18.406  16.483  1.00  0.00     0.064 A 
ATOM     10  C   UNL     1      11.064  16.859  16.923  1.00  0.00     0.119 C 
ATOM     11  N   UNL     1      11.324  17.772  17.219  1.00  0.00    -0.339 N 
ATOM     12  C   UNL     1      11.161  16.019  17.457  1.00  0.00     0.067 C 
ATOM     13  C   UNL     1      10.869  15.144  17.070  1.00  0.00     0.231 C 
ATOM     14  C   UNL     1      11.550  16.053  18.377  1.00  0.00     0.016 C 
ATOM     15  O   UNL     1      10.480  15.109  16.150  1.00  0.00    -0.285 OA
ATOM     16  C   UNL     1      11.647  15.214  18.911  1.00  0.00     0.005 C 
ATOM     17  C   UNL     1      11.355  14.339  18.525  1.00  0.00     0.051 C 
ATOM     18  F   UNL     1      10.271  19.801  13.964  1.00  0.00    -0.206 F 
ATOM     19  H   UNL     1      10.478  16.455  15.662  1.00  0.00     0.168 HD
ATOM     20  H   UNL     1      11.574  17.919  17.766  1.00  0.00     0.168 HD
BRANCH   5  21
ATOM     21  C   UNL     1      11.057  20.851  15.473  1.00  0.00     0.125 C 
ATOM     22  N   UNL     1      11.905  21.228  15.101  1.00  0.00    -0.384 N 
ATOM     23  N   UNL     1      10.321  21.464  15.761  1.00  0.00    -0.284 NA
ATOM     24  H   UNL     1      11.975  21.841  15.049  1.00  0.00     0.158 HD
ATOM     25  H   UNL     1      12.361  20.847  14.923  1.00  0.00     0.158 HD
ATOM     26  H   UNL     1      10.391  22.078  15.708  1.00  0.00     0.189 HD
ENDBRANCH   5  21
ENDBRANCH   1   2
BRANCH   1  27
ATOM     27  C   UNL     1      10.379  12.689  17.822  1.00  0.00     0.232 C 
BRANCH  27  28
ATOM     28  C   UNL     1       9.967  11.863  17.436  1.00  0.00     0.020 C 
ATOM     29  C   UNL     1      10.550  11.117  17.116  1.00  0.00     0.011 C 
ATOM     30  C   UNL     1       8.972  11.784  17.372  1.00  0.00     0.011 C 
ENDBRANCH  27  28
ENDBRANCH   1  27
TORSDOF 4
ENDMDL
MODEL 2
REMARK VINA RESULT:     0.004      3.912      5.002
REMARK INTER + INTRA:           3.085
REMARK INTER:                   0.000
REMARK INTRA:                   3.085
REMARK UNBOUND:                 3.080
REMARK SMILES [H]/N=C(\N)c1cc2c(cc1F)N/C(=C1/C=CC=C(OCC(C)C)C1=O)N2
REMARK SMILES IDX 19 1 18 2 10 3 9 4 5 5 8 6 6 7 12 8 7 9 13 10 26 11 14 12
REMARK SMILES IDX 24 13 15 14 25 15 16 16 17 17 11 18 3 21 4 22 2 23 1 26
REMARK SMILES IDX 20 27 21 28 22 29 23 30
REMARK H PARENT 12 19 26 20 4 24 4 25
ROOT
ATOM      1  O   UNL     1      13.779  17.874  15.206  1.00  0.00    -0.489 OA
ENDROOT
BRANCH   1   2
ATOM      2  C   UNL     1      13.230  18.709  15.185  1.00  0.00     0.167 C 
ATOM      3  C   UNL     1       7.470  18.740  14.781  1.00  0.00     0.136 A 
ATOM      4  C   UNL     1       8.362  18.291  14.834  1.00  0.00     0.068 A 
ATOM      5  C   UNL     1       7.411  19.738  14.797  1.00  0.00     0.054 A 
ATOM      6  C   UNL     1       9.195  18.841  14.904  1.00  0.00     0.066 A 
ATOM      7  C   UNL     1       8.244  20.288  14.867  1.00  0.00     0.043 A 
ATOM      8  N   UNL     1      10.155  18.591  14.966  1.00  0.00    -0.339 N 
ATOM      9  C   UNL     1       9.136  19.839  14.921  1.00  0.00     0.064 A 
ATOM     10  C   UNL     1      10.689  19.428  15.021  1.00  0.00     0.119 C 
ATOM     11  N   UNL     1      10.060  20.198  14.993  1.00  0.00    -0.339 N 
ATOM     12  C   UNL     1      11.685  19.486  15.092  1.00  0.00     0.067 C 
ATOM     13  C   UNL     1      12.234  18.651  15.114  1.00  0.00     0.231 C 
ATOM     14  C   UNL     1      12.131  20.380  15.142  1.00  0.00     0.016 C 
ATOM     15  O   UNL     1      11.787  17.758  15.064  1.00  0.00    -0.285 OA
ATOM     16  C   UNL     1      13.127  20.438  15.213  1.00  0.00     0.005 C 
ATOM     17  C   UNL     1      13.676  19.602  15.235  1.00  0.00     0.051 C 
ATOM     18  F   UNL     1       6.638  18.191  14.711  1.00  0.00    -0.206 F 
ATOM     19  H   UNL     1      10.382  18.014  14.970  1.00  0.00     0.168 HD
ATOM     20  H   UNL     1      10.217  20.797  15.016  1.00  0.00     0.168 HD
BRANCH   5  21
ATOM     21  C   UNL     1       6.519  20.187  14.744  1.00  0.00     0.125 C 
ATOM     22  N   UNL     1       6.134  20.429  13.854  1.00  0.00    -0.384 N 
ATOM     23  N   UNL     1       6.012  20.393  15.581  1.00  0.00    -0.284 NA
ATOM     24  H   UNL     1       5.581  20.708  13.821  1.00  0.00     0.158 HD
ATOM     25  H   UNL     1       6.448  20.301  13.335  1.00  0.00     0.158 HD
ATOM     26  H   UNL     1       5.459  20.672  15.548  1.00  0.00     0.189 HD
ENDBRANCH   5  21
ENDBRANCH   1   2
BRANCH   1  27
ATOM     27  C   UNL     1      14.666  17.870  15.668  1.00  0.00     0.232 C 
BRANCH  27  28
ATOM     28  C   UNL     1      15.157  17.009  15.802  1.00  0.00     0.020 C 
ATOM     29  C   UNL     1      15.745  16.651  15.076  1.00  0.00     0.011 C 
ATOM     30  C   UNL     1      15.060  16.507  16.661  1.00  0.00     0.011 C 
ENDBRANCH  27  28
ENDBRANCH   1  27
TORSDOF 4
ENDMDL
MODEL 3
REMARK VINA RESULT:     0.006      4.667      5.280
REMARK INTER + INTRA:           3.088
REMARK INTER:                   0.000
REMARK INTRA:                   3.088
REMARK UNBOUND:                 3.080
REMARK SMILES [H]/N=C(\N)c1cc2c(cc1F)N/C(=C1/C=CC=C(OCC(C)C)C1=O)N2
REMARK SMILES IDX 19 1 18 2 10 3 9 4 5 5 8 6 6 7 12 8 7 9 13 10 26 11 14 12
REMARK SMILES IDX 24 13 15 14 25 15 16 16 17 17 11 18 3 21 4 22 2 23 1 26
REMARK SMILES IDX 20 27 21 28 22 29 23 30
REMARK H PARENT 12 19 26 20 4 24 4 25
ROOT
ATOM      1  O   UNL     1      10.957  12.183  15.544  1.00  0.00    -0.489 OA
ENDROOT
BRANCH   1   2
ATOM      2  C   UNL     1      11.566  12.835  15.093  1.00  0.00     0.167 C 
ATOM      3  C   UNL     1      10.562  15.054   9.858  1.00  0.00     0.136 A 
ATOM      4  C   UNL     1      10.342  14.475  10.643  1.00  0.00     0.068 A 
ATOM      5  C   UNL     1      11.397  15.605   9.862  1.00  0.00     0.054 A 
ATOM      6  C   UNL     1      10.956  14.448  11.432  1.00  0.00     0.066 A 
ATOM      7  C   UNL     1      12.010  15.578  10.651  1.00  0.00     0.043 A 
ATOM      8  N   UNL     1      10.916  13.948  12.291  1.00  0.00    -0.339 N 
ATOM      9  C   UNL     1      11.790  14.999  11.436  1.00  0.00     0.064 A 
ATOM     10  C   UNL     1      11.721  14.188  12.825  1.00  0.00     0.119 C 
ATOM     11  N   UNL     1      12.259  14.836  12.297  1.00  0.00    -0.339 N 
ATOM     12  C   UNL     1      11.948  13.838  13.733  1.00  0.00     0.067 C 
ATOM     13  C   UNL     1      11.339  13.185  14.184  1.00  0.00     0.231 C 
ATOM     14  C   UNL     1      12.784  14.140  14.191  1.00  0.00     0.016 C 
ATOM     15  O   UNL     1      10.503  12.883  13.727  1.00  0.00    -0.285 OA
ATOM     16  C   UNL     1      13.011  13.791  15.100  1.00  0.00     0.005 C 
ATOM     17  C   UNL     1      12.402  13.138  15.551  1.00  0.00     0.051 C 
ATOM     18  F   UNL     1       9.949  15.081   9.069  1.00  0.00    -0.206 F 
ATOM     19  H   UNL     1      10.469  13.556  12.464  1.00  0.00     0.168 HD
ATOM     20  H   UNL     1      12.795  15.093  12.475  1.00  0.00     0.168 HD
BRANCH   5  21
ATOM     21  C   UNL     1      11.617  16.184   9.077  1.00  0.00     0.125 C 
ATOM     22  N   UNL     1      12.162  15.818   8.323  1.00  0.00    -0.384 N 
ATOM     23  N   UNL     1      11.292  17.129   9.046  1.00  0.00    -0.284 NA
ATOM     24  H   UNL     1      12.299  16.177   7.836  1.00  0.00     0.158 HD
ATOM     25  H   UNL     1      12.364  15.232   8.342  1.00  0.00     0.158 HD
ATOM     26  H   UNL     1      11.428  17.488   8.559  1.00  0.00     0.189 HD
ENDBRANCH   5  21
ENDBRANCH   1   2
BRANCH   1  27
ATOM     27  C   UNL     1      11.325  11.534  16.211  1.00  0.00     0.232 C 
BRANCH  27  28
ATOM     28  C   UNL     1      10.746  10.801  16.567  1.00  0.00     0.020 C 
ATOM     29  C   UNL     1      10.147  10.972  17.349  1.00  0.00     0.011 C 
ATOM     30  C   UNL     1      10.766   9.896  16.141  1.00  0.00     0.011 C 
ENDBRANCH  27  28
ENDBRANCH   1  27
TORSDOF 4
ENDMDL
MODEL 4
REMARK VINA RESULT:     0.014      8.629      9.011
REMARK INTER + INTRA:           3.097
REMARK INTER:                   0.000
REMARK INTRA:                   3.097
REMARK UNBOUND:                 3.080
REMARK SMILES [H]/N=C(\N)c1cc2c(cc1F)N/C(=C1/C=CC=C(OCC(C)C)C1=O)N2
REMARK SMILES IDX 19 1 18 2 10 3 9 4 5 5 8 6 6 7 12 8 7 9 13 10 26 11 14 12
REMARK SMILES IDX 24 13 15 14 25 15 16 16 17 17 11 18 3 21 4 22 2 23 1 26
REMARK SMILES IDX 20 27 21 28 22 29 23 30
REMARK H PARENT 12 19 26 20 4 24 4 25
ROOT
ATOM      1  O   UNL     1      18.273  10.401  14.995  1.00  0.00    -0.489 OA
ENDROOT
BRANCH   1   2
ATOM      2  C   UNL     1      17.833  11.298  14.941  1.00  0.00     0.167 C 
ATOM      3  C   UNL     1      19.864  15.672  11.767  1.00  0.00     0.136 A 
ATOM      4  C   UNL     1      19.887  14.739  12.126  1.00  0.00     0.068 A 
ATOM      5  C   UNL     1      19.125  16.291  12.032  1.00  0.00     0.054 A 
ATOM      6  C   UNL     1      19.172  14.425  12.750  1.00  0.00     0.066 A 
ATOM      7  C   UNL     1      18.410  15.977  12.657  1.00  0.00     0.043 A 
ATOM      8  N   UNL     1      19.019  13.555  13.206  1.00  0.00    -0.339 N 
ATOM      9  C   UNL     1      18.433  15.044  13.016  1.00  0.00     0.064 A 
ATOM     10  C   UNL     1      18.191  13.633  13.752  1.00  0.00     0.119 C 
ATOM     11  N   UNL     1      17.830  14.552  13.634  1.00  0.00    -0.339 N 
ATOM     12  C   UNL     1      17.792  12.914  14.319  1.00  0.00     0.067 C 
ATOM     13  C   UNL     1      18.232  12.017  14.373  1.00  0.00     0.231 C 
ATOM     14  C   UNL     1      16.952  13.090  14.833  1.00  0.00     0.016 C 
ATOM     15  O   UNL     1      19.072  11.841  13.860  1.00  0.00    -0.285 OA
ATOM     16  C   UNL     1      16.553  12.370  15.401  1.00  0.00     0.005 C 
ATOM     17  C   UNL     1      16.993  11.474  15.455  1.00  0.00     0.051 C 
ATOM     18  F   UNL     1      20.579  15.985  11.142  1.00  0.00    -0.206 F 
ATOM     19  H   UNL     1      19.377  13.051  13.160  1.00  0.00     0.168 HD
ATOM     20  H   UNL     1      17.318  14.778  13.899  1.00  0.00     0.168 HD
BRANCH   5  21
ATOM     21  C   UNL     1      19.101  17.224  11.673  1.00  0.00     0.125 C 
ATOM     22  N   UNL     1      18.620  17.419  10.819  1.00  0.00    -0.384 N 
ATOM     23  N   UNL     1      19.560  17.962  12.168  1.00  0.00    -0.284 NA
ATOM     24  H   UNL     1      18.605  17.998  10.596  1.00  0.00     0.158 HD
ATOM     25  H   UNL     1      18.336  16.961  10.512  1.00  0.00     0.158 HD
ATOM     26  H   UNL     1      19.545  18.541  11.946  1.00  0.00     0.189 HD
ENDBRANCH   5  21
ENDBRANCH   1   2
BRANCH   1  27
ATOM     27  C   UNL     1      17.726   9.587  15.191  1.00  0.00     0.232 C 
BRANCH  27  28
ATOM     28  C   UNL     1      18.139   8.679  15.118  1.00  0.00     0.020 C 
ATOM     29  C   UNL     1      18.646   8.297  15.891  1.00  0.00     0.011 C 
ATOM     30  C   UNL     1      18.044   8.153  14.273  1.00  0.00     0.011 C 
ENDBRANCH  27  28
ENDBRANCH   1  27
TORSDOF 4
ENDMDL
MODEL 5
REMARK VINA RESULT:     0.014      8.239      9.758
REMARK INTER + INTRA:           3.098
REMARK INTER:                   0.000
REMARK INTRA:                   3.098
REMARK UNBOUND:                 3.080
REMARK SMILES [H]/N=C(\N)c1cc2c(cc1F)N/C(=C1/C=CC=C(OCC(C)C)C1=O)N2
REMARK SMILES IDX 19 1 18 2 10 3 9 4 5 5 8 6 6 7 12 8 7 9 13 10 26 11 14 12
REMARK SMILES IDX 24 13 15 14 25 15 16 16 17 17 11 18 3 21 4 22 2 23 1 26
REMARK SMILES IDX 20 27 21 28 22 29 23 30
REMARK H PARENT 12 19 26 20 4 24 4 25
ROOT
ATOM      1  O   UNL     1      15.787  16.611  17.883  1.00  0.00    -0.489 OA
ENDROOT
BRANCH   1   2
ATOM      2  C   UNL     1      16.732  16.690  17.565  1.00  0.00     0.167 C 
ATOM      3  C   UNL     1      20.652  12.488  18.117  1.00  0.00     0.136 A 
ATOM      4  C   UNL     1      19.741  12.883  18.229  1.00  0.00     0.068 A 
ATOM      5  C   UNL     1      21.377  13.019  17.679  1.00  0.00     0.054 A 
ATOM      6  C   UNL     1      19.554  13.809  17.903  1.00  0.00     0.066 A 
ATOM      7  C   UNL     1      21.190  13.946  17.353  1.00  0.00     0.043 A 
ATOM      8  N   UNL     1      18.733  14.369  17.920  1.00  0.00    -0.339 N 
ATOM      9  C   UNL     1      20.279  14.341  17.465  1.00  0.00     0.064 A 
ATOM     10  C   UNL     1      18.946  15.243  17.495  1.00  0.00     0.119 C 
ATOM     11  N   UNL     1      19.900  15.225  17.214  1.00  0.00    -0.339 N 
ATOM     12  C   UNL     1      18.311  16.006  17.371  1.00  0.00     0.067 C 
ATOM     13  C   UNL     1      17.367  15.927  17.689  1.00  0.00     0.231 C 
ATOM     14  C   UNL     1      18.622  16.847  16.930  1.00  0.00     0.016 C 
ATOM     15  O   UNL     1      17.056  15.085  18.130  1.00  0.00    -0.285 OA
ATOM     16  C   UNL     1      17.988  17.611  16.806  1.00  0.00     0.005 C 
ATOM     17  C   UNL     1      17.043  17.532  17.124  1.00  0.00     0.051 C 
ATOM     18  F   UNL     1      20.839  11.561  18.444  1.00  0.00    -0.206 F 
ATOM     19  H   UNL     1      18.183  14.203  18.154  1.00  0.00     0.168 HD
ATOM     20  H   UNL     1      20.204  15.685  16.932  1.00  0.00     0.168 HD
BRANCH   5  21
ATOM     21  C   UNL     1      22.289  12.624  17.567  1.00  0.00     0.125 C 
ATOM     22  N   UNL     1      22.512  12.108  16.740  1.00  0.00    -0.384 N 
ATOM     23  N   UNL     1      22.978  12.745  18.282  1.00  0.00    -0.284 NA
ATOM     24  H   UNL     1      23.077  11.863  16.670  1.00  0.00     0.158 HD
ATOM     25  H   UNL     1      22.085  12.033  16.297  1.00  0.00     0.158 HD
ATOM     26  H   UNL     1      23.543  12.500  18.212  1.00  0.00     0.189 HD
ENDBRANCH   5  21
ENDBRANCH   1   2
BRANCH   1  27
ATOM     27  C   UNL     1      15.064  17.138  17.436  1.00  0.00     0.232 C 
BRANCH  27  28
ATOM     28  C   UNL     1      14.106  16.965  17.665  1.00  0.00     0.020 C 
ATOM     29  C   UNL     1      13.691  17.418  18.454  1.00  0.00     0.011 C 
ATOM     30  C   UNL     1      13.563  16.340  17.104  1.00  0.00     0.011 C 
ENDBRANCH  27  28
ENDBRANCH   1  27
TORSDOF 4
ENDMDL
MODEL 6
REMARK VINA RESULT:     0.015      5.702      7.644
REMARK INTER + INTRA:           3.098
REMARK INTER:                   0.000
REMARK INTRA:                   3.098
REMARK UNBOUND:                 3.080
REMARK SMILES [H]/N=C(\N)c1cc2c(cc1F)N/C(=C1/C=CC=C(OCC(C)C)C1=O)N2
REMARK SMILES IDX 19 1 18 2 10 3 9 4 5 5 8 6 6 7 12 8 7 9 13 10 26 11 14 12
REMARK SMILES IDX 24 13 15 14 25 15 16 16 17 17 11 18 3 21 4 22 2 23 1 26
REMARK SMILES IDX 20 27 21 28 22 29 23 30
REMARK H PARENT 12 19 26 20 4 24 4 25
ROOT
ATOM      1  O   UNL     1      14.040  19.406  15.029  1.00  0.00    -0.489 OA
ENDROOT
BRANCH   1   2
ATOM      2  C   UNL     1      14.255  19.139  14.089  1.00  0.00     0.167 C 
ATOM      3  C   UNL     1      13.958  22.748   9.592  1.00  0.00     0.136 A 
ATOM      4  C   UNL     1      13.875  22.515  10.561  1.00  0.00     0.068 A 
ATOM      5  C   UNL     1      14.247  22.053   8.934  1.00  0.00     0.054 A 
ATOM      6  C   UNL     1      14.079  21.587  10.871  1.00  0.00     0.066 A 
ATOM      7  C   UNL     1      14.452  21.124   9.244  1.00  0.00     0.043 A 
ATOM      8  N   UNL     1      14.057  21.165  11.771  1.00  0.00    -0.339 N 
ATOM      9  C   UNL     1      14.368  20.892  10.213  1.00  0.00     0.064 A 
ATOM     10  C   UNL     1      14.331  20.213  11.672  1.00  0.00     0.119 C 
ATOM     11  N   UNL     1      14.522  20.045  10.711  1.00  0.00    -0.339 N 
ATOM     12  C   UNL     1      14.400  19.543  12.411  1.00  0.00     0.067 C 
ATOM     13  C   UNL     1      14.185  19.810  13.351  1.00  0.00     0.231 C 
ATOM     14  C   UNL     1      14.685  18.606  12.210  1.00  0.00     0.016 C 
ATOM     15  O   UNL     1      13.900  20.747  13.551  1.00  0.00    -0.285 OA
ATOM     16  C   UNL     1      14.755  17.935  12.949  1.00  0.00     0.005 C 
ATOM     17  C   UNL     1      14.540  18.202  13.888  1.00  0.00     0.051 C 
ATOM     18  F   UNL     1      13.754  23.676   9.281  1.00  0.00    -0.206 F 
ATOM     19  H   UNL     1      13.901  21.445  12.301  1.00  0.00     0.168 HD
ATOM     20  H   UNL     1      14.706  19.506  10.466  1.00  0.00     0.168 HD
BRANCH   5  21
ATOM     21  C   UNL     1      14.331  22.286   7.965  1.00  0.00     0.125 C 
ATOM     22  N   UNL     1      13.546  22.178   7.355  1.00  0.00    -0.384 N 
ATOM     23  N   UNL     1      15.200  22.627   7.606  1.00  0.00    -0.284 NA
ATOM     24  H   UNL     1      13.598  22.322   6.754  1.00  0.00     0.158 HD
ATOM     25  H   UNL     1      13.007  21.966   7.577  1.00  0.00     0.158 HD
ATOM     26  H   UNL     1      15.252  22.771   7.005  1.00  0.00     0.189 HD
ENDBRANCH   5  21
ENDBRANCH   1   2
BRANCH   1  27
ATOM     27  C   UNL     1      14.470  18.929  15.795  1.00  0.00     0.232 C 
BRANCH  27  28
ATOM     28  C   UNL     1      14.357  19.275  16.726  1.00  0.00     0.020 C 
ATOM     29  C   UNL     1      13.553  19.016  17.262  1.00  0.00     0.011 C 
ATOM     30  C   UNL     1      15.048  19.879  17.122  1.00  0.00     0.011 C 
ENDBRANCH  27  28
ENDBRANCH   1  27
TORSDOF 4
ENDMDL
MODEL 7
REMARK VINA RESULT:     0.019      8.178      9.253
REMARK INTER + INTRA:           3.103
REMARK INTER:                   0.000
REMARK INTRA:                   3.103
REMARK UNBOUND:                 3.080
REMARK SMILES [H]/N=C(\N)c1cc2c(cc1F)N/C(=C1/C=CC=C(OCC(C)C)C1=O)N2
REMARK SMILES IDX 19 1 18 2 10 3 9 4 5 5 8 6 6 7 12 8 7 9 13 10 26 11 14 12
REMARK SMILES IDX 24 13 15 14 25 15 16 16 17 17 11 18 3 21 4 22 2 23 1 26
REMARK SMILES IDX 20 27 21 28 22 29 23 30
REMARK H PARENT 12 19 26 20 4 24 4 25
ROOT
ATOM      1  O   UNL     1      15.402  16.618  17.884  1.00  0.00    -0.489 OA
ENDROOT
BRANCH   1   2
ATOM      2  C   UNL     1      16.167  16.852  17.285  1.00  0.00     0.167 C 
ATOM      3  C   UNL     1      21.708  16.238  18.790  1.00  0.00     0.136 A 
ATOM      4  C   UNL     1      20.723  16.177  18.953  1.00  0.00     0.068 A 
ATOM      5  C   UNL     1      22.049  16.582  17.916  1.00  0.00     0.054 A 
ATOM      6  C   UNL     1      20.080  16.460  18.242  1.00  0.00     0.066 A 
ATOM      7  C   UNL     1      21.406  16.866  17.204  1.00  0.00     0.043 A 
ATOM      8  N   UNL     1      19.087  16.477  18.209  1.00  0.00    -0.339 N 
ATOM      9  C   UNL     1      20.422  16.805  17.367  1.00  0.00     0.064 A 
ATOM     10  C   UNL     1      18.813  16.829  17.320  1.00  0.00     0.119 C 
ATOM     11  N   UNL     1      19.637  17.032  16.801  1.00  0.00    -0.339 N 
ATOM     12  C   UNL     1      17.873  16.958  17.003  1.00  0.00     0.067 C 
ATOM     13  C   UNL     1      17.107  16.724  17.602  1.00  0.00     0.231 C 
ATOM     14  C   UNL     1      17.699  17.320  16.088  1.00  0.00     0.016 C 
ATOM     15  O   UNL     1      17.281  16.361  18.517  1.00  0.00    -0.285 OA
ATOM     16  C   UNL     1      16.759  17.449  15.771  1.00  0.00     0.005 C 
ATOM     17  C   UNL     1      15.994  17.215  16.370  1.00  0.00     0.051 C 
ATOM     18  F   UNL     1      22.351  15.954  19.501  1.00  0.00    -0.206 F 
ATOM     19  H   UNL     1      18.704  16.299  18.662  1.00  0.00     0.168 HD
ATOM     20  H   UNL     1      19.657  17.259  16.225  1.00  0.00     0.168 HD
BRANCH   5  21
ATOM     21  C   UNL     1      23.034  16.643  17.753  1.00  0.00     0.125 C 
ATOM     22  N   UNL     1      23.524  15.869  17.353  1.00  0.00    -0.384 N 
ATOM     23  N   UNL     1      23.529  17.479  17.990  1.00  0.00    -0.284 NA
ATOM     24  H   UNL     1      24.134  15.907  17.252  1.00  0.00     0.158 HD
ATOM     25  H   UNL     1      23.217  15.350  17.206  1.00  0.00     0.158 HD
ATOM     26  H   UNL     1      24.140  17.517  17.889  1.00  0.00     0.189 HD
ENDBRANCH   5  21
ENDBRANCH   1   2
BRANCH   1  27
ATOM     27  C   UNL     1      14.525  17.088  17.782  1.00  0.00     0.232 C 
BRANCH  27  28
ATOM     28  C   UNL     1      13.801  16.949  18.458  1.00  0.00     0.020 C 
ATOM     29  C   UNL     1      13.178  16.172  18.370  1.00  0.00     0.011 C 
ATOM     30  C   UNL     1      13.701  17.587  19.221  1.00  0.00     0.011 C 
ENDBRANCH  27  28
ENDBRANCH   1  27
TORSDOF 4
ENDMDL
MODEL 8
REMARK VINA RESULT:     0.019      4.610      7.067
REMARK INTER + INTRA:           3.103
REMARK INTER:                   0.000
REMARK INTRA:                   3.103
REMARK UNBOUND:                 3.080
REMARK SMILES [H]/N=C(\N)c1cc2c(cc1F)N/C(=C1/C=CC=C(OCC(C)C)C1=O)N2
REMARK SMILES IDX 19 1 18 2 10 3 9 4 5 5 8 6 6 7 12 8 7 9 13 10 26 11 14 12
REMARK SMILES IDX 24 13 15 14 25 15 16 16 17 17 11 18 3 21 4 22 2 23 1 26
REMARK SMILES IDX 20 27 21 28 22 29 23 30
REMARK H PARENT 12 19 26 20 4 24 4 25
ROOT
ATOM      1  O   UNL     1       7.629  15.792  14.357  1.00  0.00    -0.489 OA
ENDROOT
BRANCH   1   2
ATOM      2  C   UNL     1       8.171  15.213  14.965  1.00  0.00     0.167 C 
ATOM      3  C   UNL     1      11.760  11.092  13.100  1.00  0.00     0.136 A 
ATOM      4  C   UNL     1      11.098  11.830  12.969  1.00  0.00     0.068 A 
ATOM      5  C   UNL     1      12.036  10.826  14.023  1.00  0.00     0.054 A 
ATOM      6  C   UNL     1      10.712  12.302  13.762  1.00  0.00     0.066 A 
ATOM      7  C   UNL     1      11.650  11.298  14.816  1.00  0.00     0.043 A 
ATOM      8  N   UNL     1      10.055  13.043  13.842  1.00  0.00    -0.339 N 
ATOM      9  C   UNL     1      10.988  12.036  14.685  1.00  0.00     0.064 A 
ATOM     10  C   UNL     1       9.924  13.237  14.809  1.00  0.00     0.119 C 
ATOM     11  N   UNL     1      10.500  12.615  15.329  1.00  0.00    -0.339 N 
ATOM     12  C   UNL     1       9.319  13.935  15.191  1.00  0.00     0.067 C 
ATOM     13  C   UNL     1       8.777  14.515  14.583  1.00  0.00     0.231 C 
ATOM     14  C   UNL     1       9.256  14.054  16.182  1.00  0.00     0.016 C 
ATOM     15  O   UNL     1       8.840  14.396  13.592  1.00  0.00    -0.285 OA
ATOM     16  C   UNL     1       8.650  14.752  16.564  1.00  0.00     0.005 C 
ATOM     17  C   UNL     1       8.108  15.331  15.956  1.00  0.00     0.051 C 
ATOM     18  F   UNL     1      12.146  10.621  12.307  1.00  0.00    -0.206 F 
ATOM     19  H   UNL     1       9.775  13.335  13.372  1.00  0.00     0.168 HD
ATOM     20  H   UNL     1      10.546  12.593  15.946  1.00  0.00     0.168 HD
BRANCH   5  21
ATOM     21  C   UNL     1      12.699  10.089  14.154  1.00  0.00     0.125 C 
ATOM     22  N   UNL     1      12.383   9.144  14.247  1.00  0.00    -0.384 N 
ATOM     23  N   UNL     1      13.676  10.295  14.191  1.00  0.00    -0.284 NA
ATOM     24  H   UNL     1      12.794   8.687  14.327  1.00  0.00     0.158 HD
ATOM     25  H   UNL     1      11.777   9.016  14.223  1.00  0.00     0.158 HD
ATOM     26  H   UNL     1      14.087   9.838  14.272  1.00  0.00     0.189 HD
ENDBRANCH   5  21
ENDBRANCH   1   2
BRANCH   1  27
ATOM     27  C   UNL     1       7.357  16.709  14.650  1.00  0.00     0.232 C 
BRANCH  27  28
ATOM     28  C   UNL     1       6.926  17.335  14.000  1.00  0.00     0.020 C 
ATOM     29  C   UNL     1       5.938  17.299  13.851  1.00  0.00     0.011 C 
ATOM     30  C   UNL     1       7.484  17.996  13.499  1.00  0.00     0.011 C 
ENDBRANCH  27  28
ENDBRANCH   1  27
TORSDOF 4
ENDMDL
MODEL 9
REMARK VINA RESULT:     0.019     10.158     11.935
REMARK INTER + INTRA:           3.103
REMARK INTER:                   0.000
REMARK INTRA:                   3.103
REMARK UNBOUND:                 3.080
REMARK SMILES [H]/N=C(\N)c1cc2c(cc1F)N/C(=C1/C=CC=C(OCC(C)C)C1=O)N2
REMARK SMILES IDX 19 1 18 2 10 3 9 4 5 5 8 6 6 7 12 8 7 9 13 10 26 11 14 12
REMARK SMILES IDX 24 13 15 14 25 15 16 16 17 17 11 18 3 21 4 22 2 23 1 26
REMARK SMILES IDX 20 27 21 28 22 29 23 30
REMARK H PARENT 12 19 26 20 4 24 4 25
ROOT
ATOM      1  O   UNL     1      18.316  19.608   9.049  1.00  0.00    -0.489 OA
ENDROOT
BRANCH   1   2
ATOM      2  C   UNL     1      18.956  18.842   9.101  1.00  0.00     0.167 C 
ATOM      3  C   UNL     1      19.187  15.169  13.550  1.00  0.00     0.136 A 
ATOM      4  C   UNL     1      18.822  15.960  13.059  1.00  0.00     0.068 A 
ATOM      5  C   UNL     1      19.930  14.632  13.151  1.00  0.00     0.054 A 
ATOM      6  C   UNL     1      19.199  16.214  12.169  1.00  0.00     0.066 A 
ATOM      7  C   UNL     1      20.308  14.886  12.260  1.00  0.00     0.043 A 
ATOM      8  N   UNL     1      18.980  16.948  11.536  1.00  0.00    -0.339 N 
ATOM      9  C   UNL     1      19.942  15.677  11.769  1.00  0.00     0.064 A 
ATOM     10  C   UNL     1      19.582  16.868  10.749  1.00  0.00     0.119 C 
ATOM     11  N   UNL     1      20.176  16.084  10.893  1.00  0.00    -0.339 N 
ATOM     12  C   UNL     1      19.589  17.472   9.952  1.00  0.00     0.067 C 
ATOM     13  C   UNL     1      18.949  18.238   9.899  1.00  0.00     0.231 C 
ATOM     14  C   UNL     1      20.236  17.308   9.207  1.00  0.00     0.016 C 
ATOM     15  O   UNL     1      18.302  18.402  10.644  1.00  0.00    -0.285 OA
ATOM     16  C   UNL     1      20.243  17.912   8.409  1.00  0.00     0.005 C 
ATOM     17  C   UNL     1      19.603  18.678   8.357  1.00  0.00     0.051 C 
ATOM     18  F   UNL     1      18.810  14.915  14.441  1.00  0.00    -0.206 F 
ATOM     19  H   UNL     1      18.543  17.381  11.618  1.00  0.00     0.168 HD
ATOM     20  H   UNL     1      20.615  15.884  10.504  1.00  0.00     0.168 HD
BRANCH   5  21
ATOM     21  C   UNL     1      20.295  13.841  13.641  1.00  0.00     0.125 C 
ATOM     22  N   UNL     1      21.058  13.956  14.278  1.00  0.00    -0.384 N 
ATOM     23  N   UNL     1      19.899  12.935  13.495  1.00  0.00    -0.284 NA
ATOM     24  H   UNL     1      21.284  13.466  14.583  1.00  0.00     0.158 HD
ATOM     25  H   UNL     1      21.304  14.518  14.369  1.00  0.00     0.158 HD
ATOM     26  H   UNL     1      20.125  12.445  13.800  1.00  0.00     0.189 HD
ENDBRANCH   5  21
ENDBRANCH   1   2
BRANCH   1  27
ATOM     27  C   UNL     1      18.021  19.953   8.158  1.00  0.00     0.232 C 
BRANCH  27  28
ATOM     28  C   UNL     1      17.288  20.631   8.102  1.00  0.00     0.020 C 
ATOM     29  C   UNL     1      17.499  21.604   8.194  1.00  0.00     0.011 C 
ATOM     30  C   UNL     1      16.344  20.336   7.952  1.00  0.00     0.011 C 
ENDBRANCH  27  28
ENDBRANCH   1  27
TORSDOF 4
ENDMDL
